
                                 *****************
                                 * O   R   C   A *
                                 *****************

                                            #,                                       
                                            ###                                      
                                            ####                                     
                                            #####                                    
                                            ######                                   
                                           ########,                                 
                                     ,,################,,,,,                         
                               ,,#################################,,                 
                          ,,##########################################,,             
                       ,#########################################, ''#####,          
                    ,#############################################,,   '####,        
                  ,##################################################,,,,####,       
                ,###########''''           ''''###############################       
              ,#####''   ,,,,##########,,,,          '''####'''          '####       
            ,##' ,,,,###########################,,,                        '##       
           ' ,,###''''                  '''############,,,                           
         ,,##''                                '''############,,,,        ,,,,,,###''
      ,#''                                            '''#######################'''  
     '                                                          ''''####''''         
             ,#######,   #######,   ,#######,      ##                                
            ,#'     '#,  ##    ##  ,#'     '#,    #''#        ,####,    ,#,          
            ##       ##  ##   ,#'  ##            #'  '#       #'       ,# #          
            ##       ##  #######   ##           ,######,      #####,      #          
            '#,     ,#'  ##    ##  '#,     ,#' ,#      #,     #,   #      #          
             '#######'   ##     ##  '#######'  #'      '#     '####' #    #          



                #########################################################
                #                        -***-                          #
                #          Department of theory and spectroscopy        #
                #                                                       #
                #                      Frank Neese                      #
                #                                                       #
                #     Directorship, Architecture, Infrastructure        #
                #                    SHARK, DRIVERS                     #
                #        Core code/Algorithms in most modules           #
                #                                                       #
                #        Max Planck Institute fuer Kohlenforschung      #
                #                Kaiser Wilhelm Platz 1                 #
                #                 D-45470 Muelheim/Ruhr                 #
                #                      Germany                          #
                #                                                       #
                #                  All rights reserved                  #
                #                        -***-                          #
                #########################################################


                         Program Version 6.1.0  -  RELEASE   -
                                (GIT: $679e74b$)
                          ($2025-06-10 18:02:51 +0200$)


 With contributions from (in alphabetic order):
[Max-Planck-Institut fuer Kohlenforschung]                               
  Daniel Aravena         : Magnetic Suceptibility                        
  Michael Atanasov       : Ab Initio Ligand Field Theory (pilot matlab implementation)
  Alexander A. Auer      : GIAO ZORA, VPT2 properties, NMR spectrum      
  Ute Becker             : All parallelization in ORCA, NUMFREQ, NUMCALC 
  Giovanni Bistoni       : ED, misc. LED, open-shell LED, HFLD           
  Dmytro Bykov           : pre 5.0 version of the SCF Hessian            
  Marcos Casanova-Páez   : Triplet and SCS-CIS(D). UHF-(DLPNO)-IP/EA/STEOM-CCSD. UHF-CVS-IP/STEOM-CCSD   
  Vijay G. Chilkuri      : MRCI spin determinant printing, contributions to CSF-ICE 
  Pauline Colinet        : FMM embedding                                 
  Dipayan Datta          : RHF DLPNO-CCSD density                        
  Achintya Kumar Dutta   : EOM-CC, STEOM-CC                              
  Nicolas Foglia         : Exact transition moments, OPA infrastructure, MCD improvements    
  Dmitry Ganyushin       : Spin-Orbit,Spin-Spin,Magnetic field MRCI      
  Miquel Garcia-Rates    : C-PCM and meta-GGA Hessian, CCSD/C-PCM, Gaussian charge scheme 
  Tiago L. C. Gouveia    : GS-ROHF, GS-ROCIS                             
  Yang Guo               : DLPNO-NEVPT2, F12-NEVPT2, CIM, IAO-localization        
  Andreas Hansen         : Spin unrestricted coupled pair/coupled cluster methods 
  Ingolf Harden          : AUTO-CI MPn and infrastructure                
  Benjamin Helmich-Paris : MC-RPA, TRAH-(SCF,CASSCF), AVAS, COSX integrals, SCF dyn. polar., MC-PDFT, srDFT 
  Lee Huntington         : MR-EOM, pCC                                   
  Robert Izsak           : Overlap fitted RIJCOSX, COSX-SCS-MP3, EOM     
  Riya Kayal             : Wick's Theorem for AUTO-CI, AUTO-CI UHF-CCSDT 
  Emily Kempfer          : AUTO-CI RHF CISDT and CCSDT, approximate NEVPT4
  Christian Kollmar      : KDIIS, OOCD, Brueckner-CCSD(T), CCSD density, CASPT2, CASPT2-K, improved NEVPT2 
  Axel Koslowski         : Symmetry handling                             
  Simone Kossmann        : meta-GGA functionals, TD-DFT gradient, OOMP2, (MP2 Hessian; deprecated post 5.0) 
  Lucas Lang             : DCDCAS, Hyperfine gauge corrections, ICE-SOC+SSC
  Marvin Lechner         : AUTO-CI (C++ implementation), FIC-MRCC        
  Spencer Leger          : CASSCF response                               
  Dagmar Lenk            : GEPOL surface, SMD, ORCA-2-JSON               
  Dimitrios Liakos       : Extrapolation schemes; Compound Job, Property file
  Dimitrios Manganas     : Further ROCIS development; embedding schemes. LFT, Crystal Embedding 
  Dimitrios Pantazis     : SARC Basis sets                               
  Anastasios Papadopoulos: AUTO-CI, single reference methods and gradients 
  Taras Petrenko         : pre 6.0 DFT Hessian and TD-DFT gradient,  ECA, NRVS 
  Petra Pikulova         : Analytic Raman intensities                    
  Peter Pinski           : DLPNO-MP2, DLPNO-MP2 Gradient                 
  Shashank Vittal Rao    : ES-AILFT, MagRelax                            
  Christoph Reimann      : Effective Core Potentials                     
  Marius Retegan         : Local ZFS, SOC                                
  Christoph Riplinger    : Optimizer, TS searches, QM/MM, DLPNO-CCSD(T), (RO)-DLPNO pert. Triples 
  Michael Roemelt        : Original ROCIS implementation, recursive CI coupling coefficients
  Masaaki Saitow         : Open-shell DLPNO-CCSD energy and density      
  Barbara Sandhoefer     : DKH picture change effects                    
  Yorick L. A. Schmerwitz: GMF and freeze-and-release deltaSCF, NEB S-IDPP initial path                    
  Kantharuban Sivalingam : CASSCF convergence/infrastructure, NEVPT2, NEVPT3, NEVPT4(SD), FIC-MRCI and CEPA variants
  Bernardo de Souza      : ESD, SOC TD-DFT                               
  Georgi L. Stoychev     : AutoAux, RI-MP2 NMR, DLPNO-MP2 response, X2C  
  Van Anh Tran           : RI-MP2 g-tensors                              
  Willem Van den Heuvel  : Paramagnetic NMR                              
  Zikuan Wang            : NOTCH, Electric field optimization            
  Frank Wennmohs         : Technical directorship and infrastructure     
  Hang Xu                : AUTO-CI-Response properties                   
                                                                         
[FACCTs GmbH]                                                            
  Markus Bursch, Nicolas Foglia, Miquel Garcia-Rates, Ingolf Harden, Hagen Neugebauer, Anastasios Papadopoulos, 
  Christoph Riplinger, Bernardo de Souza, Georgi L. Stoychev                                                    
                                                                 
  APM, various basis sets, CI-OPT, improved COSX, DLPNO-Multilevel,           
  DOCKER, DRACO, updates on ESD, Fragmentator, GOAT, IRC, LR-CPCM, L-BFGS, MBIS, meta-GGA TD-DFT gradient, ML-optimized integration grids, 
  MM, NACMEs, nearIR, NEB, NEB-TS, NL-DFT gradient (VV10), 2- and 3-layer-ONIOM, interface openCOSMO-RS, QMMM,   
  Crystal-QMMM, RESP, rigid body optimization, SF, symmetry and pop. for TD-DFT, various functionals, SOLVATOR                                   
                                                                         
[Other institutions]                                                     
  V. Asgeirsson          : NEB                                           
  Christoph Bannwarth    : sTDA-DFT, sTD-DFT, PBEh-3c, B97-3c, D3        
  Giovanni Bistoni       : ETS/NOCV, ADLD/ADEX, COVALED                  
  Martin Brehm           : Molecular dynamics                            
  Ronald Cardenas        : ETS/NOCV                                      
  Martina Colucci        : COVALED                                       
  Sebastian Ehlert       : rSCAN, r2SCAN, r2SCAN-3c, D4, dhf basis sets  
  Marvin Friede          : D4 for Fr, Ra, Ac-Lr                          
  Lars Goerigk           : TD-DFT with DH, B97 family of functionals     
  Stefan Grimme          : VdW corrections, initial TS optimization, DFT functionals, gCP, sTDA/sTD-DF 
  Waldemar Hujo          : DFT-NL                                        
  H. Jonsson             : NEB                                           
  Holger Kruse           : gCP                                           
  Marcel Mueller         : wB97X-3c, vDZP basis set                      
  Hagen Neugebauer       : wr2SCAN, Native XTB                           
  Gianluca Regni         : ADLD/ADEX                                     
  Tobias Risthaus        : pre 6.0 range-separated hybrid DFT and stability analysis
  Lukas Wittmann         : regularized MP2, r2SCAN double-hybrids, wr2SCAN        
                                                                         
We gratefully acknowledge several colleagues who have allowed us to      
interface, adapt or use parts of their codes:                            
  Ed Valeev, F. Pavosevic, A. Kumar             : LibInt (2-el integral package), F12 methods 
  Garnet Chan, S. Sharma, J. Yang, R. Olivares  : DMRG                   
  Ulf Ekstrom                                   : XCFun DFT Library      
  Mihaly Kallay                                 : mrcc  (arbitrary order and MRCC methods)
  Frank Weinhold                                : gennbo (NPA and NBO analysis)           
  Simon Mueller                                 : openCOSMO-RS                            
  Christopher J. Cramer and Donald G. Truhlar   : smd solvation model                     
  S Lehtola, MJT Oliveira, MAL Marques          : LibXC Library                           
  Liviu Ungur et al                             : ANISO software                          


 Your calculation uses the libint2 library for the computation of 2-el integrals
 For citations please refer to: http://libint.valeyev.net

 Your ORCA version has been built with support for libXC version: 7.0.0
 For citations please refer to: https://libxc.gitlab.io

 This ORCA versions uses:
   CBLAS   interface :  Fast vector & matrix operations
   LAPACKE interface :  Fast linear algebra routines
   SCALAPACK package :  Parallel linear algebra routines
   Shared memory     :  Shared parallel matrices
   BLAS/LAPACK       :  OpenBLAS 0.3.29  USE64BITINT DYNAMIC_ARCH NO_AFFINITY Bulldozer SINGLE_THREADED
        Core in use  :  Bulldozer
   Copyright (c) 2011-2014, The OpenBLAS Project


  ***********************************
  * Starting time: Wed Aug 13 17:06:30 2025
  * Host name:     chromium03
  * Process ID:    214500
  * Working dir.:  /local/scratch/mehlhorn/61899
  ***********************************



***************************************
The coordinates will be read from file: start.xyz
***************************************


Your calculation utilizes the geometrical counterpoise correction gCP
Please cite in your paper:
H.Kruse, S. Grimme J.Chem.Phys., 136, (2012), 154101 
   

Your calculation utilizes the atom-pairwise dispersion correction
with the Becke-Johnson damping scheme (D3BJ)


Warning: RI is on but no J-basis has been assigned. Assigning Def2/J (nothing to worry about!)
================================================================================

cite the ECPs for Zr [Def2-ECP] as follows:
Ce-Yb(ecp-28): M. Dolg, H. Stoll, H.Preuss, J. Chem. Phys., 1989, 90, 1730-1734.
Y-Cd(ecp-28), Hf-Hg(ecp-46): D. Andrae,U. Haeussermann, M. Dolg, H. Stoll, H. Preuss, Theor. Chim. Acta, 1990, 77, 123-141.
In-Sb(ecp-28), Tl-Bi(ecp-46): B. Metz, H. Stoll, M. Dolg, J. Chem. Phys., 2000, 113, 2563-2569.
Te-Xe(ecp-28), Po-Rn(ecp-46): K. A. Peterson, D. Figgen, E. Goll, H. Stoll, M. Dolg, J. Chem. Phys., 2003, 119, 11113-11123.
Rb(ecp-28), Cs(ecp-46): T. Leininger, A. Nicklass, W. Kuechle, H. Stoll, M. Dolg, A. Bergner, Chem. Phys. Lett., 1996, 255, 274-280.
Sr(ecp-28), Ba(ecp-46): M. Kaupp, P. V. Schleyer, H. Stoll and H. Preuss, J. Chem. Phys., 1991, 94, 1360-1366.
La(ecp-46): M. Dolg, H. Stoll, A. Savin, H. Preuss, Theor. Chim. Acta, 1989, 75, 173-194.
Lu(ecp-28): X. Cao, M. Dolg, J. Chem. Phys., 2001, 115, 7348-7355.

ECP parameters for Zr [Def2-ECP] have been obtained from:
TURBOMOLE (7.0.2)

----- Orbital basis set information -----
Your calculation utilizes the basis: def2-SV(P)
   F. Weigend and R. Ahlrichs, Phys. Chem. Chem. Phys. 7, 3297 (2005).

----- AuxJ basis set information -----
Your calculation utilizes the auxiliary basis: def2/J
   H-Rn: F. Weigend, Phys. Chem. Chem. Phys. 8, 1057 (2006).
   Fr-Lr: K. Eichkorn, F. Weigend, O. Treutler, R. Ahlrichs; Theor. Chem. Acc. 97, 119 (1997).

================================================================================
                                        WARNINGS
                       Please study these warnings very carefully!
================================================================================

WARNING: Old DensityContainer found on disk!
         Will remove this file - 
         If you want to keep old densities, please start your calculation with a different basename. 


WARNING: Gradients are needed
  ===> : At least TightSCF should be used for SCF convergence

WARNING: Geometry Optimization
  ===> : Switching off AutoStart
         For restart on a previous wavefunction, please use MOREAD

================================================================================
                                       INPUT FILE
================================================================================
NAME = run.inp
|  1> # Geometry optimization for (AlH3)n cluster
|  2> 
|  3> %pal nprocs 24  end
|  4> 
|  5> %geom MaxIter 500 end
|  6> 
|  7> 
|  8> ! PBE def2-SV(P)
|  9> ! RKS	# closed shell for AlH3
| 10> ! D3    #  dispersion correction
| 11> ! gCP(DFT/SV(P))
| 12> ! Freq 	# Frequency analysis to check the stabiltity of the structures
| 13> 
| 14> ! NoPop # population analysis not necessary	
| 15> 
| 16> ! DEFGRID2
| 17> ! NormalSCF
| 18> ! SloppyOpt
| 19> 
| 20> ! SmallPrint
| 21> 
| 22> 
| 23> * xyzFile 0 1 start.xyz # only maingroup elements H and Al so there should be no net spin
| 24> 
| 25>                          ****END OF INPUT****
================================================================================

                       *****************************
                       * Geometry Optimization Run *
                       *****************************

Geometry optimization settings:
Update method            Update   .... BFGS
Choice of coordinates    CoordSys .... (2022) Redundant Internals
Initial Hessian          InHess   .... Almloef's Model
Max. no of cycles        MaxIter  .... 500

Convergence Tolerances:
Energy Change            TolE     ....  8.0000e-05 Eh
Max. Gradient            TolMAXG  ....  5.0000e-03 Eh/bohr
RMS Gradient             TolRMSG  ....  1.0000e-03 Eh/bohr
Max. Displacement        TolMAXD  ....  3.0000e-02 bohr
RMS Displacement         TolRMSD  ....  2.0000e-02 bohr
Strict Convergence                .... False

------------------------------------------------------------------------------
                        ORCA OPTIMIZATION COORDINATE SETUP
------------------------------------------------------------------------------

The optimization will be done in redundant internal coordinates (2022)
Making redundant internal coordinates   ...  (2022 redundants) done
Evaluating the initial hessian          ...  (Almloef) done
Evaluating the coordinates              ...  done
Calculating the B-matrix                .... done
Calculating the G-matrix                .... done
The number of degrees of freedom        .... 1011

    -----------------------------------------------------------------
                    Redundant Internal Coordinates


    -----------------------------------------------------------------
         Definition                    Initial Value    Approx d2E/dq
    -----------------------------------------------------------------
      1. B(Zr  2,Zr  1)                  3.4117         0.038058   
      2. B(Zr  3,Zr  0)                  3.4372         0.034662   
      3. B(Zr  4,Zr  1)                  3.4175         0.037253   
      4. B(Zr  4,Zr  3)                  3.3500         0.047739   
      5. B(Zr  5,Zr  2)                  3.4257         0.036148   
      6. B(Zr  5,Zr  0)                  3.4003         0.039686   
      7. B(O   6,Zr  3)                  2.1798         0.311075   
      8. B(O   6,Zr  0)                  2.1257         0.379549   
      9. B(O   6,Zr  5)                  2.1801         0.310779   
     10. B(O   7,Zr  4)                  2.1489         0.348453   
     11. B(O   7,Zr  2)                  2.1201         0.387475   
     12. B(O   7,Zr  1)                  2.1012         0.415263   
     13. B(O   8,Zr  2)                  2.0917         0.430048   
     14. B(O   8,Zr  5)                  2.1353         0.366346   
     15. B(O   8,Zr  1)                  2.1042         0.410774   
     16. B(O   9,Zr  3)                  2.0921         0.429358   
     17. B(O   9,Zr  0)                  2.1273         0.377317   
     18. B(O   9,Zr  4)                  2.1754         0.316215   
     19. B(O  10,Zr  4)                  2.1347         0.367154   
     20. B(O  10,Zr  1)                  2.0953         0.424416   
     21. B(O  10,Zr  3)                  2.0741         0.458713   
     22. B(O  11,Zr  5)                  2.1073         0.406054   
     23. B(O  11,Zr  2)                  2.1521         0.344402   
     24. B(O  11,Zr  0)                  2.1068         0.406765   
     25. B(O  12,Zr  0)                  1.9741         0.662420   
     26. B(O  13,Zr  0)                  1.9768         0.655908   
     27. B(O  14,Zr  0)                  2.0849         0.440872   
     28. B(O  15,Zr  0)                  2.0333         0.532939   
     29. B(O  16,Zr  1)                  2.0383         0.523181   
     30. B(O  17,Zr  1)                  2.0482         0.504551   
     31. B(O  18,Zr  1)                  1.9819         0.643649   
     32. B(O  19,Zr  1)                  1.9880         0.629469   
     33. B(O  20,Zr  2)                  1.9903         0.624054   
     34. B(O  21,Zr  2)                  2.0245         0.550467   
     35. B(O  22,Zr  2)                  1.9885         0.628277   
     36. B(O  23,Zr  2)                  2.0660         0.472598   
     37. B(O  24,Zr  3)                  1.9916         0.621116   
     38. B(O  25,Zr  3)                  1.9708         0.670498   
     39. B(O  26,Zr  3)                  2.0669         0.471111   
     40. B(O  27,Zr  3)                  1.9865         0.632882   
     41. B(O  28,Zr  4)                  1.9715         0.668615   
     42. B(O  29,Zr  4)                  2.0712         0.463573   
     43. B(O  30,Zr  4)                  1.9856         0.634886   
     44. B(O  31,Zr  4)                  2.0506         0.500114   
     45. B(O  32,Zr  5)                  2.0266         0.546209   
     46. B(O  33,Zr  5)                  1.9782         0.652396   
     47. B(O  34,Zr  5)                  2.0660         0.472677   
     48. B(O  35,Zr  5)                  1.9854         0.635560   
     49. B(C  36,O  33)                  1.3004         0.777860   
     50. B(C  36,O  12)                  1.3005         0.777461   
     51. B(C  37,O  25)                  1.2989         0.781990   
     52. B(C  37,O  13)                  1.2992         0.781267   
     53. B(C  38,O  21)                  1.2958         0.791104   
     54. B(C  38,O  14)                  1.2973         0.786641   
     55. B(C  39,O  29)                  1.2993         0.780980   
     56. B(C  39,O  15)                  1.2968         0.788193   
     57. B(C  40,O  34)                  1.2993         0.780759   
     58. B(C  40,O  16)                  1.3014         0.774846   
     59. B(C  41,O  26)                  1.2963         0.789450   
     60. B(C  41,O  17)                  1.2972         0.786811   
     61. B(C  42,O  22)                  1.3014         0.774863   
     62. B(C  42,O  18)                  1.3013         0.775200   
     63. B(C  43,O  19)                  1.3006         0.777021   
     64. B(C  43,O  30)                  1.3016         0.774265   
     65. B(C  44,O  35)                  1.3011         0.775752   
     66. B(C  44,O  20)                  1.3006         0.777084   
     67. B(C  45,O  31)                  1.2992         0.781267   
     68. B(C  45,O  23)                  1.3015         0.774479   
     69. B(C  46,O  32)                  1.2947         0.794043   
     70. B(C  46,O  24)                  1.2943         0.795292   
     71. B(C  47,O  28)                  1.2990         0.781815   
     72. B(C  47,O  27)                  1.2990         0.781811   
     73. B(H  48,C  41)                  1.0850         0.366715   
     74. B(H  49,C  42)                  1.0915         0.358132   
     75. B(H  50,C  38)                  1.0854         0.366267   
     76. B(H  51,C  37)                  1.0903         0.359725   
     77. B(H  52,C  43)                  1.0917         0.357808   
     78. B(H  53,C  47)                  1.0902         0.359881   
     79. B(H  54,C  39)                  1.0868         0.364319   
     80. B(H  55,C  45)                  1.0877         0.363197   
     81. B(H  56,C  40)                  1.0879         0.362940   
     82. B(H  57,C  46)                  1.0858         0.365766   
     83. B(H  58,C  36)                  1.0913         0.358421   
     84. B(H  59,C  44)                  1.0917         0.357903   
     85. B(Al 61,Al 60)                  3.1392         0.049680   
     86. B(Al 61,O  19)                  3.1820         0.010000   
     87. B(Al 62,Al 61)                  3.2380         0.034551   
     88. B(Al 62,Al 60)                  2.6946         0.254401   
     89. B(Al 63,Al 62)                  3.2336         0.035123   
     90. B(Al 63,Al 60)                  3.1557         0.046748   
     91. B(Al 64,Al 62)                  3.2841         0.029173   
     92. B(Al 64,O  16)                  3.0506         0.010000   
     93. B(Al 64,O  17)                  3.1566         0.010000   
     94. B(Al 65,Al 64)                  3.2913         0.028415   
     95. B(Al 65,Al 61)                  3.2643         0.031376   
     96. B(Al 66,Al 64)                  3.2895         0.028599   
     97. B(Al 66,Al 63)                  3.2640         0.031410   
     98. B(Al 67,Al 66)                  3.2377         0.034597   
     99. B(Al 67,Al 65)                  3.2289         0.035734   
    100. B(Al 67,Al 64)                  3.1521         0.047385   
    101. B(H  68,Al 67)                  1.5953         0.394238   
    102. B(H  69,Al 67)                  1.6754         0.293765   
    103. B(H  69,Al 64)                  1.6771         0.291972   
    104. B(H  69,H  56)                  2.8097         0.010000   
    105. B(H  70,Al 67)                  1.6759         0.293266   
    106. B(H  70,Al 66)                  1.6802         0.288630   
    107. B(H  71,Al 67)                  1.6742         0.295073   
    108. B(H  71,Al 65)                  1.6779         0.291086   
    109. B(H  71,H  56)                  3.0655         0.010000   
    110. B(H  72,Al 65)                  1.5997         0.388034   
    111. B(H  73,Al 65)                  1.5997         0.387957   
    112. B(H  73,C  42)                  3.2837         0.010000   
    113. B(H  73,O  16)                  2.8752         0.010000   
    114. B(H  73,C  40)                  2.8296         0.010000   
    115. B(H  73,H  56)                  2.6067         0.010000   
    116. B(H  73,O  18)                  2.5915         0.010000   
    117. B(H  74,Al 65)                  1.6738         0.295529   
    118. B(H  74,Al 61)                  1.6695         0.300189   
    119. B(H  74,H  49)                  3.1810         0.010000   
    120. B(H  74,O  18)                  2.6971         0.010000   
    121. B(H  75,O  19)                  3.1092         0.010000   
    122. B(H  75,Al 61)                  1.5955         0.394021   
    123. B(H  75,H  49)                  3.1391         0.010000   
    124. B(H  76,Al 65)                  1.6761         0.293038   
    125. B(H  76,Al 64)                  1.6835         0.285213   
    126. B(H  76,H  56)                  3.0704         0.010000   
    127. B(H  76,O  16)                  2.6607         0.010000   
    128. B(H  77,Al 62)                  1.6943         0.274050   
    129. B(H  77,Al 61)                  1.6743         0.294994   
    130. B(H  77,C  43)                  3.2290         0.010000   
    131. B(H  77,H  52)                  3.1470         0.010000   
    132. B(H  77,O  19)                  2.5299         0.010000   
    133. B(H  78,Al 64)                  1.6702         0.299434   
    134. B(H  78,Al 62)                  1.6851         0.283471   
    135. B(H  78,C  41)                  3.1391         0.010000   
    136. B(H  78,H  48)                  2.8401         0.010000   
    137. B(H  78,O  17)                  2.5451         0.010000   
    138. B(H  79,Al 62)                  1.6121         0.370638   
    139. B(H  79,O  19)                  3.2242         0.010000   
    140. B(H  79,C  41)                  3.0768         0.010000   
    141. B(H  79,C  43)                  3.0536         0.010000   
    142. B(H  79,O  17)                  2.9020         0.010000   
    143. B(H  79,H  52)                  2.8536         0.010000   
    144. B(H  79,H  48)                  2.7116         0.010000   
    145. B(H  80,Al 63)                  1.6758         0.293392   
    146. B(H  80,Al 62)                  1.6966         0.271750   
    147. B(H  81,Al 66)                  1.6773         0.291709   
    148. B(H  81,Al 63)                  1.6713         0.298279   
    149. B(H  82,Al 63)                  1.5951         0.394543   
    150. B(H  83,Al 66)                  1.6000         0.387538   
    151. B(H  84,Al 64)                  1.6092         0.374608   
    152. B(H  84,C  41)                  2.9894         0.010000   
    153. B(H  84,H  48)                  2.9651         0.010000   
    154. B(H  84,O  16)                  2.8357         0.010000   
    155. B(H  84,O  17)                  2.7752         0.010000   
    156. B(H  85,Al 66)                  1.6718         0.297701   
    157. B(H  85,Al 64)                  1.6750         0.294181   
    158. B(H  86,Al 60)                  1.6130         0.369473   
    159. B(H  87,Al 60)                  1.6929         0.275541   
    160. B(H  87,Al 61)                  1.6754         0.293817   
    161. B(H  88,Al 63)                  1.6759         0.293217   
    162. B(H  88,Al 60)                  1.6932         0.275177   
    163. B(H  89,Al 62)                  1.6941         0.274241   
    164. B(H  89,Al 60)                  1.6888         0.279652   
    165. B(H  90,Al 66)                  1.6001         0.387422   
    166. B(H  91,Al 62)                  1.6933         0.275111   
    167. B(H  91,Al 60)                  1.6885         0.279959   
    168. A(Zr  3,Zr  0,O  12)          122.3533         0.358138   
    169. A(Zr  3,Zr  0,Zr  5)           71.8870         0.248335   
    170. A(O   9,Zr  0,O  11)           89.0993         0.458559   
    171. A(Zr  5,Zr  0,O   9)           92.5852         0.333318   
    172. A(Zr  3,Zr  0,O  13)           72.1730         0.357537   
    173. A(O  12,Zr  0,O  15)          128.1858         0.535235   
    174. A(Zr  5,Zr  0,O  14)           99.8750         0.342080   
    175. A(O   6,Zr  0,O  13)           82.8657         0.501315   
    176. A(Zr  5,Zr  0,O  11)           36.2119         0.337509   
    177. A(O  11,Zr  0,O  12)           88.0409         0.508766   
    178. A(O  11,Zr  0,O  13)          149.9529         0.507828   
    179. A(Zr  3,Zr  0,O   6)           37.5774         0.326264   
    180. A(O   6,Zr  0,O  12)           89.2621         0.502238   
    181. A(Zr  3,Zr  0,O  14)          148.5014         0.334445   
    182. A(O  13,Zr  0,O  14)          135.9745         0.515531   
    183. A(Zr  3,Zr  0,O  11)           88.5758         0.330012   
    184. A(O   6,Zr  0,O  14)          137.5245         0.465859   
    185. A(O   9,Zr  0,O  12)          157.3814         0.501686   
    186. A(Zr  3,Zr  0,O  15)          100.6131         0.345210   
    187. A(O  11,Zr  0,O  15)          123.1932         0.488602   
    188. A(Zr  3,Zr  0,O   9)           35.1125         0.325947   
    189. A(O  12,Zr  0,O  14)           81.1207         0.516486   
    190. A(Zr  5,Zr  0,O   6)           38.4074         0.333645   
    191. A(O  12,Zr  0,O  13)           83.4573         0.556705   
    192. A(O   6,Zr  0,O   9)           68.8953         0.452812   
    193. A(O  13,Zr  0,O  15)           83.8082         0.534239   
    194. A(Zr  5,Zr  0,O  13)          114.1059         0.365890   
    195. A(O   6,Zr  0,O  11)           68.2152         0.459053   
    196. A(O  11,Zr  0,O  14)           70.1784         0.471812   
    197. A(O   6,Zr  0,O  15)          138.1689         0.482388   
    198. A(O  14,Zr  0,O  15)           74.2624         0.495952   
    199. A(O   9,Zr  0,O  15)           71.1526         0.481863   
    200. A(Zr  5,Zr  0,O  12)           72.2258         0.366510   
    201. A(O   9,Zr  0,O  14)          118.7886         0.465356   
    202. A(Zr  5,Zr  0,O  15)          155.8657         0.353180   
    203. A(O   9,Zr  0,O  13)           87.8942         0.500765   
    204. A(O  18,Zr  1,O  19)           83.0259         0.549364   
    205. A(O   7,Zr  1,O  19)           79.6513         0.505892   
    206. A(Zr  4,Zr  1,O   8)           89.5542         0.334521   
    207. A(Zr  2,Zr  1,O  17)          155.2747         0.347465   
    208. A(Zr  4,Zr  1,O  10)           36.4971         0.336343   
    209. A(O   8,Zr  1,O  16)           72.3637         0.487819   
    210. A(O  17,Zr  1,O  18)          132.3832         0.526883   
    211. A(O   7,Zr  1,O  18)           90.1148         0.508000   
    212. A(Zr  2,Zr  1,O  19)          108.2130         0.360735   
    213. A(Zr  4,Zr  1,O  16)          144.6734         0.348337   
    214. A(O  10,Zr  1,O  16)          109.8267         0.490779   
    215. A(O   8,Zr  1,O  18)           80.1302         0.506970   
    216. A(O  16,Zr  1,O  17)           80.2152         0.506819   
    217. A(Zr  4,Zr  1,O  19)           73.7020         0.359424   
    218. A(Zr  2,Zr  1,O  18)           72.3228         0.362109   
    219. A(O   7,Zr  1,O  16)          140.5516         0.488801   
    220. A(O   8,Zr  1,O  10)           84.0732         0.469374   
    221. A(O  16,Zr  1,O  19)          137.1644         0.528271   
    222. A(O  17,Zr  1,O  19)           79.8987         0.524680   
    223. A(O  10,Zr  1,O  18)          155.5150         0.510073   
    224. A(O   7,Zr  1,O   8)           68.1881         0.467501   
    225. A(Zr  4,Zr  1,O  18)          124.3792         0.360791   
    226. A(Zr  2,Zr  1,O  10)           83.9565         0.337543   
    227. A(O  10,Zr  1,O  19)           99.1591         0.507955   
    228. A(Zr  4,Zr  1,O   7)           36.9551         0.335126   
    229. A(O  16,Zr  1,O  18)           83.0426         0.530491   
    230. A(O   8,Zr  1,O  19)          143.4033         0.504868   
    231. A(O   8,Zr  1,O  17)          134.2618         0.484559   
    232. A(Zr  2,Zr  1,O   8)           35.4760         0.335711   
    233. A(Zr  4,Zr  1,O  17)           92.5566         0.346218   
    234. A(O  10,Zr  1,O  17)           71.5732         0.487495   
    235. A(Zr  2,Zr  1,Zr  4)           68.5496         0.249427   
    236. A(Zr  2,Zr  1,O  16)          105.6618         0.349595   
    237. A(Zr  2,Zr  1,O   7)           36.2639         0.336319   
    238. A(O   7,Zr  1,O  17)          129.1926         0.485534   
    239. A(O   7,Zr  1,O  10)           66.5677         0.470311   
    240. A(Zr  1,Zr  2,O  23)          105.5974         0.343666   
    241. A(O  11,Zr  2,O  23)          111.9307         0.463505   
    242. A(O   8,Zr  2,O  23)          139.0032         0.482811   
    243. A(Zr  1,Zr  2,O   8)           35.7200         0.338285   
    244. A(Zr  1,Zr  2,O  21)          158.2181         0.352611   
    245. A(O   7,Zr  2,O  23)           71.1060         0.473628   
    246. A(O  20,Zr  2,O  21)           82.0192         0.532486   
    247. A(Zr  5,Zr  2,O  21)           96.1071         0.349557   
    248. A(O  21,Zr  2,O  23)           77.0915         0.505442   
    249. A(O   7,Zr  2,O   8)           68.0670         0.465502   
    250. A(O   8,Zr  2,O  21)          132.3712         0.496643   
    251. A(O   8,Zr  2,O  20)           80.8576         0.508386   
    252. A(O  11,Zr  2,O  20)           95.1703         0.487826   
    253. A(Zr  1,Zr  2,O  11)           87.6542         0.326064   
    254. A(Zr  1,Zr  2,O  20)          107.2280         0.360204   
    255. A(Zr  5,Zr  2,O   7)           92.5187         0.329652   
    256. A(O  22,Zr  2,O  23)           83.0653         0.518092   
    257. A(Zr  5,Zr  2,O  22)          124.3827         0.357472   
    258. A(O  20,Zr  2,O  23)          137.8513         0.517438   
    259. A(Zr  1,Zr  2,O  22)           72.6594         0.360619   
    260. A(Zr  1,Zr  2,O   7)           35.8910         0.332472   
    261. A(Zr  5,Zr  2,O  11)           36.0168         0.323318   
    262. A(Zr  5,Zr  2,O  20)           72.5607         0.357063   
    263. A(O  11,Zr  2,O  22)          158.1949         0.488435   
    264. A(Zr  1,Zr  2,Zr  5)           69.1144         0.248338   
    265. A(O   8,Zr  2,O  11)           66.1173         0.455592   
    266. A(O  11,Zr  2,O  21)           71.6519         0.476659   
    267. A(O  21,Zr  2,O  22)          128.8423         0.533164   
    268. A(Zr  5,Zr  2,O   8)           36.2905         0.335398   
    269. A(O   7,Zr  2,O  22)           78.2035         0.499232   
    270. A(O   8,Zr  2,O  22)           92.1342         0.509026   
    271. A(O   7,Zr  2,O  21)          134.9374         0.487138   
    272. A(O   7,Zr  2,O  20)          142.2494         0.498606   
    273. A(O  20,Zr  2,O  22)           82.2248         0.545958   
    274. A(O   7,Zr  2,O  11)           91.4409         0.447044   
    275. A(Zr  5,Zr  2,O  23)          145.3121         0.340716   
    276. A(O  26,Zr  3,O  27)           80.4134         0.518496   
    277. A(O   9,Zr  3,O  25)           95.3910         0.515101   
    278. A(O  10,Zr  3,O  27)          104.7447         0.515911   
    279. A(Zr  0,Zr  3,O  10)           84.6879         0.336658   
    280. A(Zr  4,Zr  3,O  10)           37.8867         0.355268   
    281. A(Zr  0,Zr  3,O  24)          110.6024         0.354244   
    282. A(O  10,Zr  3,O  24)          101.0761         0.514102   
    283. A(O   9,Zr  3,O  10)           67.6856         0.480020   
    284. A(Zr  0,Zr  3,O  26)          155.6366         0.338158   
    285. A(O   9,Zr  3,O  26)          126.8466         0.482387   
    286. A(Zr  4,Zr  3,O  26)           88.0766         0.356880   
    287. A(O  24,Zr  3,O  26)           76.7042         0.516675   
    288. A(O  24,Zr  3,O  27)          137.3934         0.546226   
    289. A(O   9,Zr  3,O  27)           79.3006         0.509568   
    290. A(O   6,Zr  3,O  27)          140.6518         0.479985   
    291. A(Zr  0,Zr  3,Zr  4)           71.0872         0.255139   
    292. A(O  25,Zr  3,O  26)          129.8348         0.524145   
    293. A(O  10,Zr  3,O  26)           71.0009         0.488320   
    294. A(Zr  4,Zr  3,O   6)           92.6675         0.332860   
    295. A(O   6,Zr  3,O   9)           68.5109         0.447114   
    296. A(Zr  4,Zr  3,O  24)          138.8184         0.374175   
    297. A(O   6,Zr  3,O  10)           83.8272         0.452515   
    298. A(Zr  4,Zr  3,O   9)           39.1691         0.351312   
    299. A(O   6,Zr  3,O  25)           78.3706         0.485128   
    300. A(Zr  4,Zr  3,O  25)          131.7373         0.379156   
    301. A(Zr  0,Zr  3,O  25)           74.5137         0.358877   
    302. A(Zr  0,Zr  3,O   9)           35.7926         0.332979   
    303. A(O   6,Zr  3,O  26)          137.2673         0.454716   
    304. A(O  24,Zr  3,O  25)           84.8495         0.552240   
    305. A(O   6,Zr  3,O  24)           74.9684         0.478327   
    306. A(Zr  0,Zr  3,O   6)           36.4900         0.315817   
    307. A(Zr  0,Zr  3,O  27)          105.0668         0.355374   
    308. A(O   9,Zr  3,O  24)          142.5744         0.507786   
    309. A(O  25,Zr  3,O  27)           82.8991         0.554212   
    310. A(Zr  4,Zr  3,O  27)           74.6798         0.375389   
    311. A(O  10,Zr  3,O  25)          159.1170         0.521527   
    312. A(Zr  3,Zr  4,O  31)          165.0839         0.360527   
    313. A(O   7,Zr  4,O  31)           69.4177         0.469338   
    314. A(O   9,Zr  4,O  10)           65.1331         0.435934   
    315. A(Zr  1,Zr  4,O  28)          132.1340         0.363142   
    316. A(O  29,Zr  4,O  31)           73.8861         0.494723   
    317. A(O  28,Zr  4,O  30)           83.1839         0.554249   
    318. A(O   7,Zr  4,O  28)          168.1241         0.495174   
    319. A(O   7,Zr  4,O   9)          100.3290         0.431854   
    320. A(O  30,Zr  4,O  31)           84.6176         0.524654   
    321. A(O  28,Zr  4,O  31)          118.9591         0.529788   
    322. A(O   9,Zr  4,O  31)          136.5850         0.461072   
    323. A(Zr  3,Zr  4,O  10)           36.6316         0.342182   
    324. A(O  29,Zr  4,O  30)          143.2805         0.517237   
    325. A(O   7,Zr  4,O  29)          109.3772         0.462862   
    326. A(O  10,Zr  4,O  30)           83.7603         0.495221   
    327. A(Zr  1,Zr  4,O  29)          141.0826         0.341333   
    328. A(O   7,Zr  4,O  30)           89.5752         0.490443   
    329. A(O   7,Zr  4,O  10)           65.0421         0.443642   
    330. A(O  28,Zr  4,O  29)           81.8103         0.522284   
    331. A(O  10,Zr  4,O  29)          132.5127         0.467312   
    332. A(O   9,Zr  4,O  29)           70.2915         0.454737   
    333. A(O   9,Zr  4,O  28)           79.3279         0.486347   
    334. A(Zr  1,Zr  4,Zr  3)           72.3065         0.257872   
    335. A(Zr  3,Zr  4,O  28)           75.4771         0.378972   
    336. A(Zr  3,Zr  4,O   9)           37.4044         0.333766   
    337. A(Zr  1,Zr  4,O   9)           94.9694         0.320405   
    338. A(Zr  3,Zr  4,O   7)           96.9388         0.339204   
    339. A(Zr  1,Zr  4,O   7)           36.0033         0.325546   
    340. A(O  10,Zr  4,O  31)          132.9218         0.473865   
    341. A(O  10,Zr  4,O  28)          104.6593         0.500009   
    342. A(Zr  3,Zr  4,O  30)          101.7791         0.375594   
    343. A(Zr  1,Zr  4,O  31)           97.7841         0.345704   
    344. A(O   9,Zr  4,O  30)          138.5513         0.481719   
    345. A(Zr  1,Zr  4,O  30)           70.0914         0.359949   
    346. A(Zr  1,Zr  4,O  10)           35.7175         0.328361   
    347. A(Zr  3,Zr  4,O  29)          106.5338         0.355904   
    348. A(O  32,Zr  5,O  33)           83.4735         0.536181   
    349. A(O   8,Zr  5,O  32)          109.8588         0.481426   
    350. A(Zr  0,Zr  5,O   6)           37.2823         0.322822   
    351. A(O   6,Zr  5,O  11)           67.2013         0.442543   
    352. A(O  34,Zr  5,O  35)           82.7173         0.519229   
    353. A(O  33,Zr  5,O  35)           82.4806         0.551781   
    354. A(O  32,Zr  5,O  35)          138.8568         0.533542   
    355. A(O   6,Zr  5,O  33)           79.1853         0.482596   
    356. A(O  11,Zr  5,O  33)           98.4526         0.507154   
    357. A(O  11,Zr  5,O  32)          138.2442         0.490674   
    358. A(O  32,Zr  5,O  34)           73.7147         0.504727   
    359. A(O  11,Zr  5,O  34)          132.1672         0.477742   
    360. A(O   6,Zr  5,O  34)          135.6342         0.454911   
    361. A(Zr  2,Zr  5,O   6)           94.8038         0.317933   
    362. A(O   8,Zr  5,O  33)          164.2963         0.497527   
    363. A(Zr  2,Zr  5,O  33)          129.2896         0.359771   
    364. A(Zr  0,Zr  5,O  33)           73.7242         0.365554   
    365. A(Zr  0,Zr  5,Zr  2)           72.1593         0.249856   
    366. A(Zr  0,Zr  5,O  34)          161.9901         0.346102   
    367. A(O   8,Zr  5,O  34)           69.3333         0.468792   
    368. A(Zr  2,Zr  5,O  32)          142.8511         0.349100   
    369. A(O   6,Zr  5,O   8)           96.6035         0.434403   
    370. A(Zr  0,Zr  5,O  35)          104.5196         0.363922   
    371. A(O  33,Zr  5,O  34)          124.0095         0.521783   
    372. A(Zr  2,Zr  5,O   8)           35.4353         0.326617   
    373. A(O   8,Zr  5,O  35)           91.9249         0.495117   
    374. A(O  11,Zr  5,O  35)           82.1529         0.504687   
    375. A(O   6,Zr  5,O  35)          141.1359         0.480274   
    376. A(O   8,Zr  5,O  11)           66.1521         0.455954   
    377. A(Zr  2,Zr  5,O  34)           95.3093         0.340725   
    378. A(O   6,Zr  5,O  32)           72.3409         0.467084   
    379. A(Zr  2,Zr  5,O  35)           71.2575         0.358173   
    380. A(Zr  2,Zr  5,O  11)           36.9080         0.332217   
    381. A(Zr  0,Zr  5,O  11)           36.2024         0.337411   
    382. A(Zr  0,Zr  5,O  32)          108.2363         0.354655   
    383. A(Zr  0,Zr  5,O   8)           93.6850         0.331692   
    384. A(Zr  3,O   6,Zr  5)          134.0199         0.421851   
    385. A(Zr  0,O   6,Zr  5)          104.3103         0.437182   
    386. A(Zr  0,O   6,Zr  3)          105.9326         0.437257   
    387. A(Zr  2,O   7,Zr  4)          128.5551         0.447993   
    388. A(Zr  1,O   7,Zr  4)          107.0416         0.453665   
    389. A(Zr  1,O   7,Zr  2)          107.8452         0.462532   
    390. A(Zr  1,O   8,Zr  5)          132.3637         0.456915   
    391. A(Zr  2,O   8,Zr  5)          108.2743         0.460753   
    392. A(Zr  1,O   8,Zr  2)          108.8040         0.470511   
    393. A(Zr  3,O   9,Zr  4)          103.4265         0.448445   
    394. A(Zr  0,O   9,Zr  4)          133.0228         0.438085   
    395. A(Zr  0,O   9,Zr  3)          109.0950         0.463108   
    396. A(Zr  3,O  10,Zr  4)          105.4818         0.466411   
    397. A(Zr  1,O  10,Zr  3)          146.5384         0.478997   
    398. A(Zr  1,O  10,Zr  4)          107.7855         0.459831   
    399. A(Zr  2,O  11,Zr  5)          107.0752         0.450859   
    400. A(Zr  0,O  11,Zr  5)          107.5857         0.464750   
    401. A(Zr  0,O  11,Zr  2)          141.4284         0.451003   
    402. A(Zr  0,O  12,C  36)          130.6612         0.508836   
    403. A(Zr  0,O  13,C  37)          133.2607         0.508362   
    404. A(Zr  0,O  14,C  38)          141.2444         0.472895   
    405. A(Zr  0,O  15,C  39)          128.6859         0.489912   
    406. A(Zr  1,O  16,C  40)          137.1917         0.486698   
    407. A(C  40,O  16,Al 64)          114.3870         0.243581   
    408. A(Zr  1,O  16,Al 64)          107.4939         0.252739   
    409. A(Zr  1,O  17,C  41)          140.0149         0.484818   
    410. A(C  41,O  17,Al 64)          109.0444         0.231034   
    411. A(Zr  1,O  17,Al 64)          103.5986         0.237703   
    412. A(Zr  1,O  18,C  42)          128.7285         0.505839   
    413. A(C  43,O  19,Al 61)          125.8634         0.227677   
    414. A(Zr  1,O  19,Al 61)          106.2510         0.242076   
    415. A(Zr  1,O  19,C  43)          125.9892         0.503963   
    416. A(Zr  2,O  20,C  44)          127.3335         0.503160   
    417. A(Zr  2,O  21,C  38)          134.3948         0.493196   
    418. A(Zr  2,O  22,C  42)          127.7840         0.503524   
    419. A(Zr  2,O  23,C  45)          137.7278         0.477608   
    420. A(Zr  3,O  24,C  46)          139.5043         0.504892   
    421. A(Zr  3,O  25,C  37)          129.8975         0.510544   
    422. A(Zr  3,O  26,C  41)          135.2327         0.479018   
    423. A(Zr  3,O  27,C  47)          131.3338         0.505049   
    424. A(Zr  4,O  28,C  47)          130.8859         0.510254   
    425. A(Zr  4,O  29,C  39)          140.5539         0.476649   
    426. A(Zr  4,O  30,C  43)          129.4999         0.504434   
    427. A(Zr  4,O  31,C  45)          126.5036         0.483396   
    428. A(Zr  5,O  32,C  46)          140.4168         0.492825   
    429. A(Zr  5,O  33,C  36)          128.1420         0.507439   
    430. A(Zr  5,O  34,C  40)          126.4253         0.478334   
    431. A(Zr  5,O  35,C  44)          128.5403         0.504714   
    432. A(O  33,C  36,H  58)          116.4537         0.364235   
    433. A(O  12,C  36,H  58)          116.4549         0.364203   
    434. A(O  12,C  36,O  33)          127.0913         0.465069   
    435. A(O  13,C  37,O  25)          127.6331         0.465937   
    436. A(O  13,C  37,H  51)          116.1776         0.364733   
    437. A(O  25,C  37,H  51)          116.1891         0.364791   
    438. A(O  14,C  38,H  50)          115.1370         0.366290   
    439. A(O  14,C  38,O  21)          129.7056         0.467513   
    440. A(O  21,C  38,H  50)          115.1566         0.366646   
    441. A(O  15,C  39,H  54)          115.3992         0.366079   
    442. A(O  15,C  39,O  29)          129.1197         0.466580   
    443. A(O  29,C  39,H  54)          115.4800         0.365504   
    444. A(O  16,C  40,O  34)          129.6703         0.465099   
    445. A(O  34,C  40,H  56)          115.0035         0.365249   
    446. A(O  16,C  40,H  56)          115.3160         0.364774   
    447. A(O  17,C  41,O  26)          129.9862         0.467353   
    448. A(O  17,C  41,H  48)          115.0549         0.366381   
    449. A(O  26,C  41,H  48)          114.9546         0.366591   
    450. A(O  18,C  42,O  22)          127.4562         0.464493   
    451. A(O  22,C  42,H  49)          116.3105         0.363944   
    452. A(O  18,C  42,H  49)          116.2332         0.363971   
    453. A(O  30,C  43,H  52)          116.6411         0.363840   
    454. A(O  19,C  43,H  52)          116.5397         0.364061   
    455. A(O  19,C  43,O  30)          126.8173         0.464627   
    456. A(O  20,C  44,O  35)          127.1027         0.464797   
    457. A(O  35,C  44,H  59)          116.4684         0.363975   
    458. A(O  20,C  44,H  59)          116.4281         0.364082   
    459. A(O  31,C  45,H  55)          115.1179         0.365334   
    460. A(O  23,C  45,H  55)          115.1802         0.364788   
    461. A(O  23,C  45,O  31)          129.7002         0.465114   
    462. A(O  32,C  46,H  57)          115.5148         0.366793   
    463. A(O  24,C  46,H  57)          115.5167         0.366891   
    464. A(O  24,C  46,O  32)          128.9646         0.468770   
    465. A(O  28,C  47,H  53)          116.2163         0.364804   
    466. A(O  27,C  47,H  53)          116.2027         0.364804   
    467. A(O  27,C  47,O  28)          127.5804         0.465977   
    468. A(H  88,Al 60,H  89)           89.7819         0.339189   
    469. A(H  87,Al 60,H  89)           90.3971         0.339264   
    470. A(H  86,Al 60,H  89)          138.3656         0.356444   
    471. A(Al 63,Al 60,H  89)           77.8008         0.293322   
    472. A(Al 62,Al 60,H  89)           37.2698         0.388809   
    473. A(Al 61,Al 60,H  89)           77.9192         0.296154   
    474. A(H  87,Al 60,H  88)          168.6266         0.338352   
    475. A(H  86,Al 60,H  88)           93.5349         0.355469   
    476. A(Al 62,Al 60,H  88)           86.0843         0.387716   
    477. A(Al 61,Al 60,H  88)          149.1029         0.295399   
    478. A(Al 63,Al 60,H  87)          149.8177         0.292638   
    479. A(Al 61,Al 60,H  87)           21.1358         0.295461   
    480. A(Al 63,Al 60,H  86)          113.4618         0.306617   
    481. A(Al 61,Al 60,H  86)          114.5348         0.309634   
    482. A(Al 63,Al 60,H  88)           20.3921         0.292577   
    483. A(H  88,Al 60,H  91)           84.1820         0.339251   
    484. A(Al 62,Al 60,Al 63)           66.5659         0.332953   
    485. A(Al 61,Al 60,Al 63)          129.0055         0.257560   
    486. A(Al 61,Al 60,Al 62)           66.9260         0.336334   
    487. A(H  86,Al 60,H  87)           93.8789         0.355549   
    488. A(Al 62,Al 60,H  87)           87.1790         0.387806   
    489. A(H  89,Al 60,H  91)           74.5061         0.340167   
    490. A(H  87,Al 60,H  91)           84.9085         0.339326   
    491. A(H  86,Al 60,H  91)          147.1200         0.356510   
    492. A(Al 63,Al 60,H  91)           65.2575         0.293373   
    493. A(Al 62,Al 60,H  91)           37.2366         0.388883   
    494. A(Al 61,Al 60,H  91)           65.3094         0.296206   
    495. A(H  75,Al 61,H  87)          123.5397         0.363418   
    496. A(H  74,Al 61,H  87)          105.9017         0.347034   
    497. A(Al 65,Al 61,H  87)           96.3080         0.277790   
    498. A(Al 62,Al 61,H  87)           70.5419         0.281953   
    499. A(Al 60,Al 61,H  87)           21.3671         0.298484   
    500. A(H  75,Al 61,H  77)          115.0999         0.363667   
    501. A(Al 65,Al 61,H  77)           92.5112         0.277961   
    502. A(Al 62,Al 61,H  77)           16.1027         0.282128   
    503. A(Al 60,Al 61,H  77)           65.8606         0.298674   
    504. A(H  77,Al 61,H  87)           86.0142         0.346017   
    505. A(H  74,Al 61,H  75)          118.7542         0.364754   
    506. A(Al 65,Al 61,H  75)          131.1981         0.290755   
    507. A(Al 62,Al 61,H  75)          127.0870         0.295204   
    508. A(Al 60,Al 61,H  75)          137.2512         0.312870   
    509. A(Al 65,Al 61,H  74)           12.4997         0.278709   
    510. A(Al 62,Al 61,H  74)          100.4434         0.282893   
    511. A(Al 60,Al 61,H  74)          101.7492         0.299504   
    512. A(Al 62,Al 61,Al 65)           89.7727         0.230861   
    513. A(Al 60,Al 61,Al 65)           89.9236         0.243014   
    514. A(Al 60,Al 61,Al 62)           49.9595         0.246411   
    515. A(O  19,Al 61,H  87)          135.8080         0.203613   
    516. A(O  19,Al 61,H  77)           52.2194         0.203717   
    517. A(O  19,Al 61,H  75)           72.7958         0.211484   
    518. A(O  19,Al 61,H  74)           96.7706         0.204171   
    519. A(O  19,Al 61,Al 65)           98.9608         0.173265   
    520. A(O  19,Al 61,Al 62)           68.3220         0.175123   
    521. A(O  19,Al 61,Al 60)          117.6038         0.182501   
    522. A(H  74,Al 61,H  77)          100.9559         0.347268   
    523. A(H  80,Al 62,H  89)           86.9458         0.337380   
    524. A(H  79,Al 62,H  89)          109.7707         0.355454   
    525. A(H  78,Al 62,H  89)          149.5122         0.339765   
    526. A(Al 64,Al 62,H  89)          138.2479         0.271828   
    527. A(Al 63,Al 62,H  89)           75.3682         0.279674   
    528. A(Al 61,Al 62,H  89)           74.8488         0.278966   
    529. A(Al 60,Al 62,H  89)           37.1331         0.387486   
    530. A(H  79,Al 62,H  80)          107.9722         0.354904   
    531. A(H  78,Al 62,H  80)           80.1068         0.339248   
    532. A(H  77,Al 62,H  80)          153.1327         0.337341   
    533. A(Al 64,Al 62,H  80)           79.4578         0.271451   
    534. A(Al 63,Al 62,H  80)           16.3919         0.279280   
    535. A(Al 61,Al 62,H  80)          138.5288         0.278574   
    536. A(Al 60,Al 62,H  80)           79.7985         0.386870   
    537. A(H  77,Al 62,H  79)           98.8289         0.355412   
    538. A(Al 64,Al 62,H  79)          111.9670         0.284728   
    539. A(Al 63,Al 62,H  79)          122.5212         0.293127   
    540. A(Al 61,Al 62,H  79)          113.1805         0.292369   
    541. A(Al 60,Al 62,H  79)          146.6682         0.408546   
    542. A(H  77,Al 62,H  78)           93.4428         0.339726   
    543. A(Al 64,Al 62,H  78)           11.7750         0.273203   
    544. A(Al 63,Al 62,H  78)           85.4553         0.281108   
    545. A(Al 61,Al 62,H  78)           96.9964         0.280394   
    546. A(Al 60,Al 62,H  78)          112.8330         0.389731   
    547. A(Al 64,Al 62,H  77)           88.9837         0.271800   
    548. A(Al 63,Al 62,H  77)          138.1905         0.279643   
    549. A(Al 61,Al 62,H  77)           15.9071         0.278936   
    550. A(Al 60,Al 62,H  77)           78.8057         0.387439   
    551. A(H  78,Al 62,H  79)          100.4826         0.357458   
    552. A(Al 63,Al 62,Al 64)           81.5701         0.229062   
    553. A(Al 61,Al 62,Al 64)           89.7452         0.228542   
    554. A(H  77,Al 62,H  89)           85.7545         0.337854   
    555. A(Al 60,Al 62,Al 64)          101.2734         0.308258   
    556. A(Al 61,Al 62,Al 63)          122.7955         0.234530   
    557. A(Al 60,Al 62,Al 63)           63.5644         0.317666   
    558. A(Al 60,Al 62,Al 61)           63.1145         0.316817   
    559. A(H  89,Al 62,H  91)           74.2472         0.338072   
    560. A(H  80,Al 62,H  91)           76.9560         0.337558   
    561. A(H  78,Al 62,H  91)           75.9778         0.339945   
    562. A(H  77,Al 62,H  91)           76.1768         0.338032   
    563. A(Al 64,Al 62,H  91)           64.2938         0.271960   
    564. A(Al 63,Al 62,H  91)           62.9867         0.279810   
    565. A(Al 61,Al 62,H  91)           62.4330         0.279102   
    566. A(Al 60,Al 62,H  91)           37.1145         0.387700   
    567. A(H  79,Al 62,H  91)          173.5405         0.355645   
    568. A(H  81,Al 63,H  88)          101.2983         0.346543   
    569. A(H  80,Al 63,H  88)           85.7801         0.345581   
    570. A(Al 66,Al 63,H  88)           93.5595         0.277749   
    571. A(Al 62,Al 63,H  88)           69.7008         0.282583   
    572. A(Al 60,Al 63,H  88)           20.6120         0.295524   
    573. A(H  81,Al 63,H  82)          120.1707         0.364439   
    574. A(Al 66,Al 63,H  82)          133.0665         0.290864   
    575. A(Al 62,Al 63,H  82)          127.7800         0.296035   
    576. A(Al 60,Al 63,H  82)          130.4585         0.309875   
    577. A(H  80,Al 63,H  81)          109.4251         0.346577   
    578. A(Al 66,Al 63,H  81)           12.9314         0.278481   
    579. A(Al 62,Al 63,H  81)          107.5768         0.283334   
    580. A(Al 60,Al 63,H  81)          100.6891         0.296326   
    581. A(Al 66,Al 63,H  80)           98.7540         0.277774   
    582. A(Al 62,Al 63,H  80)           16.6019         0.282609   
    583. A(Al 60,Al 63,H  80)           66.3250         0.295552   
    584. A(H  82,Al 63,H  88)          116.4324         0.363374   
    585. A(H  80,Al 63,H  82)          117.5964         0.363411   
    586. A(Al 62,Al 63,Al 66)           95.2480         0.231424   
    587. A(Al 60,Al 63,Al 66)           89.7966         0.240946   
    588. A(Al 60,Al 63,Al 62)           49.8697         0.244837   
    589. A(H  84,Al 64,H  85)          123.1710         0.360374   
    590. A(H  76,Al 64,H  85)          107.0631         0.344134   
    591. A(H  69,Al 64,H  85)           81.8601         0.345490   
    592. A(Al 67,Al 64,H  85)           70.4838         0.296312   
    593. A(Al 65,Al 64,H  85)           97.4284         0.273654   
    594. A(Al 62,Al 64,H  85)           87.4091         0.274756   
    595. A(H  78,Al 64,H  84)          100.9517         0.361463   
    596. A(H  76,Al 64,H  84)          127.0972         0.358479   
    597. A(H  69,Al 64,H  84)           90.0309         0.359912   
    598. A(Al 67,Al 64,H  84)          109.9043         0.307968   
    599. A(Al 66,Al 64,H  84)          127.4653         0.284320   
    600. A(Al 65,Al 64,H  84)          133.4853         0.284036   
    601. A(Al 62,Al 64,H  84)          112.8138         0.285200   
    602. A(H  76,Al 64,H  78)           90.5937         0.345158   
    603. A(H  69,Al 64,H  78)          168.8274         0.346520   
    604. A(Al 67,Al 64,H  78)          149.1296         0.297144   
    605. A(Al 66,Al 64,H  78)          101.3898         0.274665   
    606. A(Al 65,Al 64,H  78)           97.7051         0.274395   
    607. A(Al 62,Al 64,H  78)           11.8816         0.275502   
    608. A(H  69,Al 64,H  76)           81.0326         0.343699   
    609. A(Al 67,Al 64,H  76)           70.2825         0.294864   
    610. A(Al 66,Al 64,H  76)           99.4885         0.272631   
    611. A(Al 65,Al 64,H  76)           11.5470         0.272364   
    612. A(Al 62,Al 64,H  76)           82.7843         0.273459   
    613. A(O  16,Al 64,H  78)           97.1833         0.217387   
    614. A(O  17,Al 64,Al 67)          144.2036         0.183477   
    615. A(Al 67,Al 64,H  69)           19.9029         0.295959   
    616. A(Al 66,Al 64,H  69)           72.9747         0.273607   
    617. A(Al 65,Al 64,H  69)           72.8916         0.273339   
    618. A(Al 62,Al 64,H  69)          156.9960         0.274439   
    619. A(O  17,Al 64,H  84)           61.4705         0.212672   
    620. A(Al 66,Al 64,Al 67)           60.3025         0.238211   
    621. A(Al 65,Al 64,Al 67)           60.1021         0.237995   
    622. A(Al 62,Al 64,Al 67)          137.2507         0.238884   
    623. A(Al 65,Al 64,Al 66)           89.1392         0.221903   
    624. A(Al 62,Al 64,Al 66)           93.8059         0.222697   
    625. A(Al 66,Al 64,H  85)           10.6089         0.273922   
    626. A(Al 62,Al 64,Al 65)           88.5127         0.222502   
    627. A(O  16,Al 64,O  17)           50.1545         0.147275   
    628. A(O  17,Al 64,H  85)          144.8040         0.206088   
    629. A(H  78,Al 64,H  85)           93.6614         0.346959   
    630. A(O  17,Al 64,H  78)           53.4701         0.206558   
    631. A(O  17,Al 64,H  76)           87.5706         0.205271   
    632. A(O  17,Al 64,H  69)          132.7909         0.205889   
    633. A(O  17,Al 64,Al 66)          154.2182         0.173273   
    634. A(O  17,Al 64,Al 65)           99.1128         0.173151   
    635. A(O  17,Al 64,Al 62)           62.2948         0.173653   
    636. A(O  16,Al 64,H  85)          163.4293         0.216874   
    637. A(O  16,Al 64,H  84)           66.8814         0.224064   
    638. A(O  16,Al 64,H  76)           60.4788         0.215981   
    639. A(O  16,Al 64,H  69)           85.1692         0.216656   
    640. A(O  16,Al 64,Al 67)           94.0670         0.192180   
    641. A(O  16,Al 64,Al 66)          152.8600         0.181037   
    642. A(O  16,Al 64,Al 65)           68.7674         0.180903   
    643. A(O  16,Al 64,Al 62)          100.8980         0.181452   
    644. A(H  74,Al 65,H  76)           89.0462         0.345968   
    645. A(H  73,Al 65,H  76)           95.5309         0.362293   
    646. A(H  72,Al 65,H  76)           93.5102         0.362305   
    647. A(H  71,Al 65,H  76)           82.5499         0.345088   
    648. A(Al 67,Al 65,H  76)           68.0496         0.283313   
    649. A(Al 64,Al 65,H  76)           11.5984         0.273491   
    650. A(Al 61,Al 65,H  76)           81.3643         0.277676   
    651. A(H  73,Al 65,H  74)           93.7066         0.362817   
    652. A(H  72,Al 65,H  74)           86.8600         0.362829   
    653. A(H  71,Al 65,H  74)          169.8480         0.345579   
    654. A(Al 67,Al 65,H  74)          154.4574         0.283686   
    655. A(Al 64,Al 65,H  74)           98.1303         0.273845   
    656. A(Al 61,Al 65,H  74)           12.4673         0.278038   
    657. A(H  72,Al 65,H  73)          170.9488         0.380225   
    658. A(H  71,Al 65,H  73)           92.7674         0.361879   
    659. A(Al 67,Al 65,H  73)           99.4252         0.296054   
    660. A(Al 64,Al 65,H  73)          102.0217         0.285588   
    661. A(Al 61,Al 65,H  73)          104.1280         0.290048   
    662. A(H  71,Al 65,H  72)           87.9762         0.361892   
    663. A(Al 67,Al 65,H  72)           83.5676         0.296063   
    664. A(Al 64,Al 65,H  72)           86.8222         0.285597   
    665. A(Al 61,Al 65,H  72)           77.6485         0.290057   
    666. A(Al 67,Al 65,H  71)           15.5673         0.283019   
    667. A(Al 64,Al 65,H  71)           72.8451         0.273212   
    668. A(Al 61,Al 65,H  71)          157.6483         0.277391   
    669. A(Al 64,Al 65,Al 67)           57.8104         0.228775   
    670. A(Al 61,Al 65,Al 67)          142.8799         0.231946   
    671. A(Al 61,Al 65,Al 64)           89.1674         0.224721   
    672. A(H  83,Al 66,H  85)           88.5702         0.363204   
    673. A(H  81,Al 66,H  85)           81.3540         0.346129   
    674. A(H  70,Al 66,H  85)           82.8619         0.345512   
    675. A(Al 67,Al 66,H  85)           67.9506         0.282586   
    676. A(Al 64,Al 66,H  85)           10.6297         0.274421   
    677. A(Al 63,Al 66,H  85)           72.0404         0.278398   
    678. A(H  81,Al 66,H  83)           92.2986         0.361945   
    679. A(H  70,Al 66,H  83)           92.2505         0.361290   
    680. A(Al 67,Al 66,H  83)           94.7789         0.294494   
    681. A(Al 64,Al 66,H  83)           92.4292         0.285826   
    682. A(Al 63,Al 66,H  83)          100.6733         0.290048   
    683. A(H  70,Al 66,H  81)          163.4504         0.344335   
    684. A(Al 67,Al 66,H  81)          148.2478         0.281698   
    685. A(Al 64,Al 66,H  81)           91.0935         0.273569   
    686. A(Al 63,Al 66,H  81)           12.8838         0.277528   
    687. A(Al 67,Al 66,H  70)           15.2457         0.281235   
    688. A(Al 64,Al 66,H  70)           72.8204         0.273127   
    689. A(Al 63,Al 66,H  70)          151.2756         0.277076   
    690. A(Al 64,Al 66,Al 67)           57.7450         0.227958   
    691. A(Al 63,Al 66,Al 67)          136.5017         0.230939   
    692. A(Al 63,Al 66,Al 64)           81.0337         0.224952   
    693. A(H  85,Al 66,H  90)           94.0988         0.363185   
    694. A(H  81,Al 66,H  90)           87.4432         0.361926   
    695. A(H  70,Al 66,H  90)           88.7538         0.361271   
    696. A(Al 67,Al 66,H  90)           86.8585         0.294480   
    697. A(Al 64,Al 66,H  90)           90.3160         0.285812   
    698. A(Al 63,Al 66,H  90)           79.5514         0.290034   
    699. A(H  70,Al 67,H  71)          110.4033         0.345923   
    700. A(H  69,Al 67,H  71)           88.0627         0.346022   
    701. A(H  68,Al 67,H  71)          120.8482         0.363718   
    702. A(Al 66,Al 67,H  71)          102.8371         0.282198   
    703. A(Al 65,Al 67,H  71)           15.6026         0.283618   
    704. A(Al 64,Al 67,H  71)           77.1437         0.296454   
    705. A(H  69,Al 67,H  70)           88.4005         0.345665   
    706. A(H  68,Al 67,H  70)          124.6538         0.363336   
    707. A(Al 66,Al 67,H  70)           15.2861         0.281930   
    708. A(Al 65,Al 67,H  70)          101.2747         0.283347   
    709. A(Al 64,Al 67,H  70)           77.0640         0.296166   
    710. A(H  68,Al 67,H  69)          111.6403         0.363442   
    711. A(Al 66,Al 67,H  69)           74.5689         0.282004   
    712. A(Al 65,Al 67,H  69)           74.8081         0.283422   
    713. A(Al 64,Al 67,H  69)           19.9235         0.296246   
    714. A(Al 66,Al 67,H  68)          135.6640         0.295292   
    715. A(Al 65,Al 67,H  68)          133.1810         0.296808   
    716. A(Al 64,Al 67,H  68)          131.5558         0.310514   
    717. A(Al 65,Al 67,Al 66)           91.1504         0.235143   
    718. A(Al 64,Al 67,Al 66)           61.9526         0.244782   
    719. A(Al 64,Al 67,Al 65)           62.0875         0.245927   
    720. A(Al 64,H  69,Al 67)          140.1736         0.345408   
    721. A(Al 66,H  70,Al 67)          149.4682         0.344642   
    722. A(Al 65,H  71,Al 67)          148.8301         0.345490   
    723. A(Al 61,H  74,Al 65)          155.0330         0.347374   
    724. A(Al 64,H  76,Al 65)          156.8546         0.343909   
    725. A(Al 61,H  77,Al 62)          147.9902         0.341997   
    726. A(Al 62,H  78,Al 64)          156.3434         0.344803   
    727. A(Al 62,H  80,Al 63)          147.0062         0.341204   
    728. A(Al 63,H  81,Al 66)          154.1848         0.346242   
    729. A(Al 64,H  85,Al 66)          158.7613         0.346621   
    730. A(Al 60,H  87,Al 61)          137.4970         0.342079   
    731. A(Al 60,H  88,Al 63)          138.9959         0.341886   
    732. A(Al 60,H  89,Al 62)          105.5971         0.338996   
    733. A(Al 60,H  91,Al 62)          105.6489         0.339238   
    734. D(Zr  5,Zr  2,Zr  1,Zr  4)    103.7482         0.010000   
    735. D(Zr  5,Zr  2,Zr  1,O   7)    127.4114         0.010000   
    736. D(O   7,Zr  2,Zr  1,Zr  4)    -23.6632         0.010000   
    737. D(Zr  4,Zr  3,Zr  0,O   6)   -123.0882         0.010000   
    738. D(Zr  4,Zr  3,Zr  0,Zr  5)   -101.0393         0.010000   
    739. D(O   6,Zr  3,Zr  0,Zr  5)     22.0489         0.010000   
    740. D(Zr  3,Zr  4,Zr  1,Zr  2)   -107.6419         0.010000   
    741. D(O   7,Zr  4,Zr  3,Zr  0)     77.4913         0.010000   
    742. D(Zr  1,Zr  4,Zr  3,O   6)     74.1606         0.010000   
    743. D(Zr  1,Zr  4,Zr  3,Zr  0)    104.0802         0.010000   
    744. D(O   7,Zr  4,Zr  1,Zr  2)     23.2593         0.010000   
    745. D(Zr  3,Zr  4,Zr  1,O   7)   -130.9012         0.010000   
    746. D(O   6,Zr  5,Zr  0,Zr  3)    -21.6231         0.010000   
    747. D(Zr  2,Zr  5,Zr  0,O   6)    124.6104         0.010000   
    748. D(Zr  2,Zr  5,Zr  0,Zr  3)    102.9873         0.010000   
    749. D(O   6,Zr  5,Zr  2,Zr  1)    -76.1808         0.010000   
    750. D(Zr  0,Zr  5,Zr  2,Zr  1)   -106.2009         0.010000   
    751. D(Zr  0,Zr  5,Zr  2,O   7)    -78.4194         0.010000   
    752. D(Zr  3,O   6,Zr  5,Zr  0)    129.8268         0.010000   
    753. D(Zr  0,O   6,Zr  5,O   8)    -87.4064         0.010000   
    754. D(Zr  5,O   6,Zr  3,Zr  0)   -129.2961         0.010000   
    755. D(Zr  0,O   6,Zr  3,Zr  4)     52.5099         0.010000   
    756. D(Zr  3,O   6,Zr  0,O   9)    -20.5696         0.010000   
    757. D(Zr  5,O   6,Zr  0,Zr  3)    144.9480         0.010000   
    758. D(Zr  0,O   6,Zr  5,Zr  2)    -51.8334         0.010000   
    759. D(Zr  0,O   6,Zr  3,O   9)     20.9890         0.010000   
    760. D(Zr  3,O   6,Zr  0,Zr  5)   -144.9480         0.010000   
    761. D(Zr  2,O   7,Zr  1,O   8)     20.3842         0.010000   
    762. D(Zr  4,O   7,Zr  1,Zr  2)   -141.5841         0.010000   
    763. D(Zr  1,O   7,Zr  2,Zr  5)    -47.9723         0.010000   
    764. D(Zr  2,O   7,Zr  1,Zr  4)    141.5841         0.010000   
    765. D(Zr  1,O   7,Zr  2,O   8)    -20.5295         0.010000   
    766. D(Zr  1,O   7,Zr  4,O   9)     84.2013         0.010000   
    767. D(Zr  1,O   7,Zr  4,Zr  3)     46.5020         0.010000   
    768. D(Zr  2,O   7,Zr  4,Zr  1)   -130.8567         0.010000   
    769. D(Zr  4,O   7,Zr  2,Zr  1)    130.5633         0.010000   
    770. D(Zr  2,O   8,Zr  5,Zr  0)     51.6819         0.010000   
    771. D(Zr  1,O   8,Zr  5,Zr  2)   -139.5136         0.010000   
    772. D(Zr  1,O   8,Zr  5,Zr  0)    -87.8318         0.010000   
    773. D(Zr  5,O   8,Zr  2,Zr  1)   -149.5504         0.010000   
    774. D(Zr  1,O   8,Zr  2,Zr  5)    149.5504         0.010000   
    775. D(Zr  1,O   8,Zr  2,O   7)     20.6184         0.010000   
    776. D(Zr  5,O   8,Zr  1,Zr  2)    139.3616         0.010000   
    777. D(Zr  2,O   8,Zr  1,O   7)    -20.7935         0.010000   
    778. D(Zr  2,O   8,Zr  1,Zr  4)    -51.7410         0.010000   
    779. D(Zr  4,O   9,Zr  3,Zr  0)    145.5830         0.010000   
    780. D(Zr  0,O   9,Zr  4,Zr  3)    133.0652         0.010000   
    781. D(Zr  0,O   9,Zr  3,Zr  4)   -145.5830         0.010000   
    782. D(Zr  0,O   9,Zr  4,Zr  1)     81.0852         0.010000   
    783. D(Zr  0,O   9,Zr  3,O   6)    -21.3588         0.010000   
    784. D(Zr  4,O   9,Zr  0,Zr  3)   -131.2373         0.010000   
    785. D(Zr  3,O   9,Zr  0,O   6)     21.8706         0.010000   
    786. D(Zr  3,O   9,Zr  0,Zr  5)     52.7515         0.010000   
    787. D(Zr  3,O   9,Zr  4,Zr  1)    -51.9800         0.010000   
    788. D(Zr  4,O  10,Zr  3,Zr  0)    -65.7580         0.010000   
    789. D(Zr  1,O  10,Zr  4,Zr  3)   -176.3461         0.010000   
    790. D(Zr  3,O  10,Zr  4,Zr  1)    176.3461         0.010000   
    791. D(Zr  3,O  10,Zr  1,Zr  4)   -173.6046         0.010000   
    792. D(Zr  1,O  10,Zr  3,Zr  0)    107.9233         0.010000   
    793. D(Zr  1,O  10,Zr  3,Zr  4)    173.6813         0.010000   
    794. D(Zr  1,O  10,Zr  4,O   7)    -28.2120         0.010000   
    795. D(Zr  4,O  10,Zr  1,Zr  2)     61.6286         0.010000   
    796. D(Zr  3,O  10,Zr  1,Zr  2)   -111.9760         0.010000   
    797. D(Zr  2,O  11,Zr  5,Zr  0)   -162.8104         0.010000   
    798. D(Zr  0,O  11,Zr  5,Zr  2)    162.8104         0.010000   
    799. D(Zr  5,O  11,Zr  2,Zr  1)     56.6032         0.010000   
    800. D(Zr  0,O  11,Zr  2,Zr  5)   -153.1377         0.010000   
    801. D(Zr  5,O  11,Zr  0,Zr  3)    -60.4980         0.010000   
    802. D(Zr  0,O  11,Zr  2,Zr  1)    -96.5345         0.010000   
    803. D(Zr  0,O  11,Zr  5,O   6)     27.4989         0.010000   
    804. D(Zr  2,O  11,Zr  0,Zr  3)     92.5589         0.010000   
    805. D(Zr  2,O  11,Zr  0,Zr  5)    153.0569         0.010000   
    806. D(C  36,O  12,Zr  0,Zr  5)    -23.5444         0.010000   
    807. D(C  36,O  12,Zr  0,Zr  3)     30.3310         0.010000   
    808. D(C  37,O  13,Zr  0,Zr  5)    -47.2110         0.010000   
    809. D(C  37,O  13,Zr  0,Zr  3)     12.6789         0.010000   
    810. D(C  38,O  14,Zr  0,Zr  5)     23.5279         0.010000   
    811. D(C  38,O  14,Zr  0,Zr  3)    -47.8155         0.010000   
    812. D(C  39,O  15,Zr  0,Zr  5)      1.6072         0.010000   
    813. D(C  39,O  15,Zr  0,Zr  3)    -67.5770         0.010000   
    814. D(Al 64,O  16,Zr  1,Zr  2)   -167.5849         0.010000   
    815. D(C  40,O  16,Zr  1,Zr  4)    -74.6625         0.010000   
    816. D(C  40,O  16,Zr  1,Zr  2)      0.1944         0.010000   
    817. D(Al 64,O  17,Zr  1,Zr  2)   -141.1396         0.010000   
    818. D(C  41,O  17,Zr  1,Zr  4)    -35.8606         0.010000   
    819. D(C  41,O  17,Zr  1,Zr  2)      3.0419         0.010000   
    820. D(C  42,O  18,Zr  1,Zr  4)     19.8307         0.010000   
    821. D(C  42,O  18,Zr  1,Zr  2)    -27.0825         0.010000   
    822. D(Al 61,O  19,Zr  1,Zr  2)    107.9470         0.010000   
    823. D(C  43,O  19,Zr  1,Zr  4)    -26.8830         0.010000   
    824. D(C  43,O  19,Zr  1,Zr  2)    -87.0612         0.010000   
    825. D(C  44,O  20,Zr  2,Zr  5)    -27.9971         0.010000   
    826. D(C  44,O  20,Zr  2,Zr  1)    -88.7458         0.010000   
    827. D(C  38,O  21,Zr  2,Zr  5)    -62.7641         0.010000   
    828. D(C  38,O  21,Zr  2,Zr  1)    -17.0679         0.010000   
    829. D(C  42,O  22,Zr  2,Zr  5)     20.7702         0.010000   
    830. D(C  42,O  22,Zr  2,Zr  1)    -27.4551         0.010000   
    831. D(C  45,O  23,Zr  2,Zr  5)    -72.3915         0.010000   
    832. D(C  45,O  23,Zr  2,Zr  1)      3.3059         0.010000   
    833. D(C  46,O  24,Zr  3,Zr  4)     62.0762         0.010000   
    834. D(C  46,O  24,Zr  3,Zr  0)    -22.4031         0.010000   
    835. D(C  37,O  25,Zr  3,Zr  4)    -31.7956         0.010000   
    836. D(C  37,O  25,Zr  3,Zr  0)     13.9443         0.010000   
    837. D(C  41,O  26,Zr  3,Zr  4)     67.2486         0.010000   
    838. D(C  41,O  26,Zr  3,Zr  0)     36.6020         0.010000   
    839. D(C  47,O  27,Zr  3,Zr  4)      0.6047         0.010000   
    840. D(C  47,O  27,Zr  3,Zr  0)     65.6575         0.010000   
    841. D(C  47,O  28,Zr  4,Zr  3)     -1.7124         0.010000   
    842. D(C  47,O  28,Zr  4,Zr  1)     47.1624         0.010000   
    843. D(C  39,O  29,Zr  4,Zr  1)    -81.2881         0.010000   
    844. D(C  39,O  29,Zr  4,Zr  3)      0.8374         0.010000   
    845. D(C  43,O  30,Zr  4,Zr  3)    -99.7080         0.010000   
    846. D(C  43,O  30,Zr  4,Zr  1)    -33.6442         0.010000   
    847. D(C  45,O  31,Zr  4,Zr  3)    -26.6310         0.010000   
    848. D(C  45,O  31,Zr  4,Zr  1)    -73.9018         0.010000   
    849. D(C  46,O  32,Zr  5,Zr  2)    -47.2364         0.010000   
    850. D(C  46,O  32,Zr  5,Zr  0)     37.0662         0.010000   
    851. D(C  36,O  33,Zr  5,Zr  2)     25.5735         0.010000   
    852. D(C  36,O  33,Zr  5,Zr  0)    -23.7900         0.010000   
    853. D(C  40,O  34,Zr  5,Zr  2)    -77.0746         0.010000   
    854. D(C  40,O  34,Zr  5,Zr  0)    -32.2555         0.010000   
    855. D(C  44,O  35,Zr  5,Zr  2)    -31.3165         0.010000   
    856. D(C  44,O  35,Zr  5,Zr  0)    -96.3507         0.010000   
    857. D(H  58,C  36,O  33,Zr  5)   -161.8811         0.046329   
    858. D(O  12,C  36,O  33,Zr  5)     18.0932         0.046329   
    859. D(H  58,C  36,O  12,Zr  0)   -163.4075         0.046276   
    860. D(O  33,C  36,O  12,Zr  0)     16.6181         0.046276   
    861. D(H  51,C  37,O  25,Zr  3)    168.5560         0.046879   
    862. D(O  13,C  37,O  25,Zr  3)    -11.6030         0.046879   
    863. D(H  51,C  37,O  13,Zr  0)    171.6668         0.046783   
    864. D(O  25,C  37,O  13,Zr  0)     -8.1742         0.046783   
    865. D(H  50,C  38,O  21,Zr  2)   -166.7671         0.048108   
    866. D(O  14,C  38,O  21,Zr  2)     13.5749         0.048108   
    867. D(H  50,C  38,O  14,Zr  0)   -165.5579         0.047504   
    868. D(O  21,C  38,O  14,Zr  0)     14.1001         0.047504   
    869. D(H  54,C  39,O  29,Zr  4)   -151.2255         0.046744   
    870. D(O  15,C  39,O  29,Zr  4)     29.1808         0.046744   
    871. D(H  54,C  39,O  15,Zr  0)   -163.2904         0.047713   
    872. D(O  29,C  39,O  15,Zr  0)     16.3035         0.047713   
    873. D(H  56,C  40,O  34,Zr  5)   -159.0496         0.051666   
    874. D(O  16,C  40,O  34,Zr  5)     19.7152         0.051666   
    875. D(H  56,C  40,O  16,Zr  1)   -149.5769         0.067457   
    876. D(O  34,C  40,O  16,Al 64)   -161.1454         0.067457   
    877. D(O  34,C  40,O  16,Zr  1)     31.6615         0.067457   
    878. D(H  48,C  41,O  26,Zr  3)    164.7697         0.062133   
    879. D(O  17,C  41,O  26,Zr  3)    -16.0386         0.062133   
    880. D(H  48,C  41,O  17,Zr  1)    173.6289         0.077311   
    881. D(O  26,C  41,O  17,Al 64)    137.4425         0.077311   
    882. D(O  26,C  41,O  17,Zr  1)     -5.5621         0.077311   
    883. D(H  49,C  42,O  22,Zr  2)   -159.3446         0.050798   
    884. D(O  18,C  42,O  22,Zr  2)     20.6159         0.050798   
    885. D(H  49,C  42,O  18,Zr  1)   -160.7187         0.059641   
    886. D(O  22,C  42,O  18,Zr  1)     19.3207         0.059641   
    887. D(H  52,C  43,O  30,Zr  4)   -151.7224         0.055230   
    888. D(O  19,C  43,O  30,Zr  4)     28.7991         0.055230   
    889. D(H  52,C  43,O  19,Zr  1)   -163.7937         0.071591   
    890. D(O  30,C  43,O  19,Al 61)    177.8206         0.071591   
    891. D(O  30,C  43,O  19,Zr  1)     15.6852         0.071591   
    892. D(H  59,C  44,O  35,Zr  5)   -155.2568         0.046050   
    893. D(O  20,C  44,O  35,Zr  5)     25.0985         0.046050   
    894. D(H  59,C  44,O  20,Zr  2)   -161.1886         0.046226   
    895. D(O  35,C  44,O  20,Zr  2)     18.4562         0.046226   
    896. D(H  55,C  45,O  31,Zr  4)   -163.2452         0.046783   
    897. D(O  23,C  45,O  31,Zr  4)     16.2456         0.046783   
    898. D(H  55,C  45,O  23,Zr  2)   -150.1927         0.045881   
    899. D(O  31,C  45,O  23,Zr  2)     30.3169         0.045881   
    900. D(H  57,C  46,O  32,Zr  5)    179.2026         0.048508   
    901. D(O  24,C  46,O  32,Zr  5)     -0.0366         0.048508   
    902. D(H  57,C  46,O  24,Zr  3)    171.0045         0.048679   
    903. D(O  32,C  46,O  24,Zr  3)     -9.7563         0.048679   
    904. D(H  53,C  47,O  28,Zr  4)   -177.3697         0.046856   
    905. D(O  27,C  47,O  28,Zr  4)      2.9339         0.046856   
    906. D(H  53,C  47,O  27,Zr  3)    178.1672         0.046855   
    907. D(O  28,C  47,O  27,Zr  3)     -2.1363         0.046855   
    908. D(Al 65,Al 61,Al 60,Al 62)     89.7674         0.010000   
    909. D(Al 62,Al 61,Al 60,H  86)    175.4391         0.010000   
    910. D(Al 62,Al 61,Al 60,Al 63)    -25.6687         0.010000   
    911. D(Al 62,Al 61,O  19,Zr  1)     94.9217         0.010000   
    912. D(Al 60,Al 61,O  19,C  43)    -61.6112         0.010000   
    913. D(Al 60,Al 61,O  19,Zr  1)    103.4051         0.010000   
[...]
  42   2.0000     -10.046701      -273.3846 
  43   2.0000     -10.046015      -273.3660 
  44   2.0000     -10.044699      -273.3302 
  45   2.0000     -10.044393      -273.3218 
  46   2.0000     -10.041643      -273.2470 
  47   2.0000     -10.041495      -273.2430 
  48   2.0000     -10.041365      -273.2394 
  49   2.0000     -10.039236      -273.1815 
  50   2.0000      -3.970836      -108.0519 
  51   2.0000      -3.963895      -107.8631 
  52   2.0000      -3.955384      -107.6315 
  53   2.0000      -3.948748      -107.4509 
  54   2.0000      -3.943091      -107.2970 
  55   2.0000      -3.942492      -107.2807 
  56   2.0000      -3.941527      -107.2544 
  57   2.0000      -3.937603      -107.1476 
  58   2.0000      -2.579313       -70.1867 
  59   2.0000      -2.577518       -70.1378 
  60   2.0000      -2.572956       -70.0137 
  61   2.0000      -2.571347       -69.9699 
  62   2.0000      -2.570497       -69.9468 
  63   2.0000      -2.566854       -69.8476 
  64   2.0000      -2.563067       -69.7446 
  65   2.0000      -2.562943       -69.7412 
  66   2.0000      -2.556795       -69.5739 
  67   2.0000      -2.556170       -69.5569 
  68   2.0000      -2.555229       -69.5313 
  69   2.0000      -2.551570       -69.4318 
  70   2.0000      -2.551141       -69.4201 
  71   2.0000      -2.550614       -69.4057 
  72   2.0000      -2.549996       -69.3889 
  73   2.0000      -2.549096       -69.3644 
  74   2.0000      -2.548723       -69.3543 
  75   2.0000      -2.547760       -69.3281 
  76   2.0000      -2.546431       -69.2919 
  77   2.0000      -2.545985       -69.2798 
  78   2.0000      -2.544666       -69.2439 
  79   2.0000      -2.544486       -69.2390 
  80   2.0000      -2.543050       -69.1999 
  81   2.0000      -2.538290       -69.0704 
  82   2.0000      -2.059322       -56.0370 
  83   2.0000      -2.058472       -56.0139 
  84   2.0000      -2.058286       -56.0088 
  85   2.0000      -2.057868       -55.9974 
  86   2.0000      -2.057449       -55.9860 
  87   2.0000      -2.057149       -55.9779 
  88   2.0000      -1.242216       -33.8024 
  89   2.0000      -1.238579       -33.7035 
  90   2.0000      -1.238243       -33.6943 
  91   2.0000      -1.236766       -33.6541 
  92   2.0000      -1.235448       -33.6182 
  93   2.0000      -1.234993       -33.6059 
  94   2.0000      -1.232496       -33.5379 
  95   2.0000      -1.231728       -33.5170 
  96   2.0000      -1.231225       -33.5033 
  97   2.0000      -1.231081       -33.4994 
  98   2.0000      -1.230830       -33.4926 
  99   2.0000      -1.229067       -33.4446 
 100   2.0000      -1.227451       -33.4006 
 101   2.0000      -1.227171       -33.3930 
 102   2.0000      -1.226494       -33.3746 
 103   2.0000      -1.225911       -33.3587 
 104   2.0000      -1.225558       -33.3491 
 105   2.0000      -1.225276       -33.3415 
 106   2.0000      -1.007920       -27.4269 
 107   2.0000      -1.006663       -27.3927 
 108   2.0000      -1.004664       -27.3383 
 109   2.0000      -1.003735       -27.3130 
 110   2.0000      -1.003544       -27.3078 
 111   2.0000      -1.003068       -27.2949 
 112   2.0000      -1.000420       -27.2228 
 113   2.0000      -0.998524       -27.1712 
 114   2.0000      -0.998002       -27.1570 
 115   2.0000      -0.996918       -27.1275 
 116   2.0000      -0.996064       -27.1043 
 117   2.0000      -0.993347       -27.0304 
 118   2.0000      -0.927571       -25.2405 
 119   2.0000      -0.925781       -25.1918 
 120   2.0000      -0.924156       -25.1476 
 121   2.0000      -0.923276       -25.1236 
 122   2.0000      -0.922931       -25.1142 
 123   2.0000      -0.921898       -25.0861 
 124   2.0000      -0.920966       -25.0608 
 125   2.0000      -0.920076       -25.0365 
 126   2.0000      -0.918314       -24.9886 
 127   2.0000      -0.917034       -24.9538 
 128   2.0000      -0.916476       -24.9386 
 129   2.0000      -0.913728       -24.8638 
 130   2.0000      -0.835882       -22.7455 
 131   2.0000      -0.826875       -22.5004 
 132   2.0000      -0.826292       -22.4846 
 133   2.0000      -0.816966       -22.2308 
 134   2.0000      -0.816291       -22.2124 
 135   2.0000      -0.813272       -22.1302 
 136   2.0000      -0.568266       -15.4633 
 137   2.0000      -0.566595       -15.4178 
 138   2.0000      -0.565041       -15.3755 
 139   2.0000      -0.564604       -15.3637 
 140   2.0000      -0.561746       -15.2859 
 141   2.0000      -0.561268       -15.2729 
 142   2.0000      -0.560723       -15.2580 
 143   2.0000      -0.558119       -15.1872 
 144   2.0000      -0.555960       -15.1284 
 145   2.0000      -0.554028       -15.0759 
 146   2.0000      -0.553025       -15.0486 
 147   2.0000      -0.551029       -14.9943 
 148   2.0000      -0.504306       -13.7229 
 149   2.0000      -0.482664       -13.1340 
 150   2.0000      -0.481253       -13.0955 
 151   2.0000      -0.479770       -13.0552 
 152   2.0000      -0.478749       -13.0274 
 153   2.0000      -0.476478       -12.9656 
 154   2.0000      -0.476028       -12.9534 
 155   2.0000      -0.474745       -12.9185 
 156   2.0000      -0.473755       -12.8915 
 157   2.0000      -0.473597       -12.8872 
 158   2.0000      -0.470803       -12.8112 
 159   2.0000      -0.469886       -12.7863 
 160   2.0000      -0.468269       -12.7422 
 161   2.0000      -0.466691       -12.6993 
 162   2.0000      -0.466154       -12.6847 
 163   2.0000      -0.464744       -12.6463 
 164   2.0000      -0.464253       -12.6330 
 165   2.0000      -0.463615       -12.6156 
 166   2.0000      -0.463125       -12.6023 
 167   2.0000      -0.463041       -12.6000 
 168   2.0000      -0.454084       -12.3562 
 169   2.0000      -0.451630       -12.2895 
 170   2.0000      -0.450436       -12.2570 
 171   2.0000      -0.450005       -12.2453 
 172   2.0000      -0.449912       -12.2427 
 173   2.0000      -0.448678       -12.2092 
 174   2.0000      -0.439024       -11.9464 
 175   2.0000      -0.431941       -11.7537 
 176   2.0000      -0.427131       -11.6228 
 177   2.0000      -0.425784       -11.5862 
 178   2.0000      -0.425571       -11.5804 
 179   2.0000      -0.415985       -11.3195 
 180   2.0000      -0.415616       -11.3095 
 181   2.0000      -0.414311       -11.2740 
 182   2.0000      -0.413353       -11.2479 
 183   2.0000      -0.410784       -11.1780 
 184   2.0000      -0.409296       -11.1375 
 185   2.0000      -0.408609       -11.1188 
 186   2.0000      -0.406710       -11.0671 
 187   2.0000      -0.405212       -11.0264 
 188   2.0000      -0.402022       -10.9396 
 189   2.0000      -0.397049       -10.8043 
 190   2.0000      -0.378712       -10.3053 
 191   2.0000      -0.377811       -10.2808 
 192   2.0000      -0.372975       -10.1492 
 193   2.0000      -0.372410       -10.1338 
 194   2.0000      -0.372282       -10.1303 
 195   2.0000      -0.365242        -9.9387 
 196   2.0000      -0.364527        -9.9193 
 197   2.0000      -0.363981        -9.9044 
 198   2.0000      -0.360733        -9.8160 
 199   2.0000      -0.340879        -9.2758 
 200   2.0000      -0.340270        -9.2592 
 201   2.0000      -0.338158        -9.2018 
 202   2.0000      -0.336232        -9.1493 
 203   2.0000      -0.335360        -9.1256 
 204   2.0000      -0.332581        -9.0500 
 205   2.0000      -0.329735        -8.9725 
 206   2.0000      -0.328813        -8.9475 
 207   2.0000      -0.328375        -8.9355 
 208   2.0000      -0.326228        -8.8771 
 209   2.0000      -0.319327        -8.6893 
 210   2.0000      -0.317910        -8.6508 
 211   2.0000      -0.315757        -8.5922 
 212   2.0000      -0.315002        -8.5716 
 213   2.0000      -0.314103        -8.5472 
 214   2.0000      -0.312583        -8.5058 
 215   2.0000      -0.307942        -8.3795 
 216   2.0000      -0.307195        -8.3592 
 217   2.0000      -0.306545        -8.3415 
 218   2.0000      -0.305480        -8.3125 
 219   2.0000      -0.304876        -8.2961 
 220   2.0000      -0.301796        -8.2123 
 221   2.0000      -0.300037        -8.1644 
 222   2.0000      -0.298509        -8.1229 
 223   2.0000      -0.296466        -8.0672 
 224   2.0000      -0.295326        -8.0362 
 225   2.0000      -0.294739        -8.0203 
 226   2.0000      -0.294052        -8.0016 
 227   2.0000      -0.292229        -7.9520 
 228   2.0000      -0.292021        -7.9463 
 229   2.0000      -0.291807        -7.9405 
 230   2.0000      -0.290336        -7.9004 
 231   2.0000      -0.289809        -7.8861 
 232   2.0000      -0.288831        -7.8595 
 233   2.0000      -0.287466        -7.8223 
 234   2.0000      -0.287332        -7.8187 
 235   2.0000      -0.286553        -7.7975 
 236   2.0000      -0.285883        -7.7793 
 237   2.0000      -0.284448        -7.7402 
 238   2.0000      -0.282243        -7.6802 
 239   2.0000      -0.281651        -7.6641 
 240   2.0000      -0.280992        -7.6462 
 241   2.0000      -0.280166        -7.6237 
 242   2.0000      -0.279360        -7.6018 
 243   2.0000      -0.278704        -7.5839 
 244   2.0000      -0.278083        -7.5670 
 245   2.0000      -0.277406        -7.5486 
 246   2.0000      -0.275300        -7.4913 
 247   2.0000      -0.274586        -7.4719 
 248   2.0000      -0.273987        -7.4556 
 249   2.0000      -0.273072        -7.4307 
 250   2.0000      -0.270124        -7.3505 
 251   2.0000      -0.267340        -7.2747 
 252   2.0000      -0.266147        -7.2422 
 253   2.0000      -0.261104        -7.1050 
 254   2.0000      -0.259859        -7.0711 
 255   2.0000      -0.259425        -7.0593 
 256   2.0000      -0.256204        -6.9717 
 257   2.0000      -0.254394        -6.9224 
 258   2.0000      -0.246782        -6.7153 
 259   2.0000      -0.242686        -6.6038 
 260   2.0000      -0.242479        -6.5982 
 261   2.0000      -0.238854        -6.4996 
 262   0.0000      -0.129999        -3.5374 
 263   0.0000      -0.126815        -3.4508 
 264   0.0000      -0.099433        -2.7057 
 265   0.0000      -0.098067        -2.6686 
 266   0.0000      -0.096342        -2.6216 
 267   0.0000      -0.094789        -2.5793 
 268   0.0000      -0.091839        -2.4991 
 269   0.0000      -0.088943        -2.4203 
 270   0.0000      -0.086392        -2.3509 
 271   0.0000      -0.083106        -2.2614 
 272   0.0000      -0.079124        -2.1531 
*Only the first 10 virtual orbitals were printed.
-------
TIMINGS
-------

Total SCF time: 0 days 0 hours 1 min 6 sec 

Total time                  ....      66.327 sec
Sum of individual times     ....      62.451 sec  ( 94.2%)

SCF preparation             ....       1.699 sec  (  2.6%)
Fock matrix formation       ....      40.183 sec  ( 60.6%)
  Startup                   ....       0.698 sec  (  1.7% of F)
  Split-RI-J                ....      28.436 sec  ( 70.8% of F)
  XC integration            ....      13.565 sec  ( 33.8% of F)
    XC Preparation          ....       0.000 sec  (  0.0% of XC)
    Basis function eval.    ....       4.150 sec  ( 30.6% of XC)
    Density eval.           ....       4.560 sec  ( 33.6% of XC)
    XC-Functional eval.     ....       0.222 sec  (  1.6% of XC)
    XC-Potential eval.      ....       2.839 sec  ( 20.9% of XC)
Diagonalization             ....       0.000 sec  (  0.0%)
Density matrix formation    ....       1.558 sec  (  2.3%)
Total Energy calculation    ....       0.378 sec  (  0.6%)
Population analysis         ....       0.000 sec  (  0.0%)
Orbital Transformation      ....       2.803 sec  (  4.2%)
Orbital Orthonormalization  ....       0.000 sec  (  0.0%)
DIIS solution               ....      11.032 sec  ( 16.6%)
SOSCF solution              ....       4.796 sec  (  7.2%)
Finished LeanSCF after  67.0 sec

Maximum memory used throughout the entire LEANSCF-calculation: 117.7 MB


           ************************************************************
           *        Program running with 24 parallel MPI-processes    *
           *              working on a common directory               *
           ************************************************************

------------------------------------------------------------------------------
                         ORCA PROPERTY INTEGRAL CALCULATIONS
------------------------------------------------------------------------------

GBWName                                   ... run.gbw
Number of atoms                           ...     92
Number of basis functions                 ...    948
Max core memory                           ...   4096 MB

Dipole integrals                          ... YES
Quadrupole integrals                      ...  NO
Linear momentum integrals                 ...  NO
Angular momentum integrals                ...  NO
Higher moments length integrals           ...  NO
Higher moments velocity integrals         ...  NO
Kinetic energy integrals                  ...  NO
GIAO right hand sides                     ...  NO
GIAO dipole derivative integrals          ...  NO
SOC integrals                             ...  NO
EPR diamagnetic integrals (GIAO)          ...  NO
EPR gauge integrals                       ...  NO
Field gradient integrals                  ...  NO (   0 nuclei)
Spin-dipole/Fermi contact integrals       ...  NO (   0 nuclei)
Contact density integrals                 ...  NO (   0 nuclei)
Nucleus-orbit integrals                   ...  NO (   0 nuclei)
Geometric perturbations                   ... YES (  92 nuclei)

Choice of electric origin   ... Center of mass
Position of electric origin ... ( -0.2004, -1.7598, -1.6968) 
Choice of magnetic origin   ... GIAO
Position of magnetic origin ... (  0.0000,  0.0000,  0.0000) 

Calculating integrals                     ... Electric Dipole (Length)     done (  0.2 sec)
Calculating integrals                     ... Geometrical perturbation right hand sides

-----------------------
GEOMETRIC PERTURBATIONS (92 nuclei)
-----------------------

MaxCore                            ...   4096 MB
Number of batches                  ...      2

BATCH   0: Atoms    0 -   58 (177 perturbations)
   => H(core) and overlap derivative integrals     ... done (    10.5 sec)
   => Making and storing internal U-coefficients   ... done (     2.5 sec)
   => RI-J derivative integrals                    ... done (   218.9 sec)
   => RI-J response operators                      ... done (    66.7 sec)
   => ECP derivative integrals                     ... done (  1163.2 sec)
   => XC derivative integrals                      ... done (   364.3 sec)
   => XC response operators                        ... done (   150.4 sec)
   => Completing and storing right hand sides      ... done (     1.1 sec)
BATCH   1: Atoms   59 -   91 ( 99 perturbations)
   => H(core) and overlap derivative integrals     ... done (     9.6 sec)
   => Making and storing internal U-coefficients   ... done (     1.5 sec)
   => RI-J derivative integrals                    ... done (   125.5 sec)
   => RI-J response operators                      ... done (    34.4 sec)
   => ECP derivative integrals                     ... done (   648.1 sec)
   => XC derivative integrals                      ... done (    95.2 sec)
   => XC response operators                        ... done (    65.4 sec)
   => Completing and storing right hand sides      ... done (     0.6 sec)
   => Total time for right hand sides = 2991.9 sec

  geometrical perturbations done (2991.9 sec)

Property integrals calculated in 2992.3 sec

Maximum memory used throughout the entire PROPINT-calculation: 3611.0 MB


-------------------------------------------------------------------------------
                          DFT DISPERSION CORRECTION                            
                                                                               
                              DFTD3 V3.1  Rev 1                                
                          USING Becke-Johnson damping                          
-------------------------------------------------------------------------------
The PBE functional is recognized
Active option DFTDOPT                   ...         4   

molecular C6(AA) [au] = 193302.805046 


            DFT-D V3
 parameters
 s6 scaling factor         :     1.0000 
 a1 scaling factor         :     0.4289 
 s8 scaling factor         :     0.7875 
 a2 scaling factor         :     4.4407 
 ad hoc parameters k1-k3   :    16.0000     1.3333    -4.0000 

 Edisp/kcal,au: -116.079362594370  -0.184984219378 
 E6   /kcal   : -72.405004875 
 E8   /kcal   : -43.674357719 
 % E8         :  37.624567144 

-------------------------   ----------------
Dispersion correction           -0.184984219
-------------------------   ----------------

NOTIFICATION: Different basis set in ORCA and otool_gcp:
ORCA: 948  gCP: 990 
If you are NOT using ECPs, check your basis set inputs!
------------------   -----------------
gCP correction             0.448754610
------------------   -----------------

-------------------------   --------------------
FINAL SINGLE POINT ENERGY     -4952.481868971038
-------------------------   --------------------

                                *** OPTIMIZATION RUN DONE ***



           ************************************************************
           *        Program running with 24 parallel MPI-processes    *
           *              working on a common directory               *
           ************************************************************
------------------------------------------------------------------------------
                            ORCA SCF RESPONSE CALCULATION
------------------------------------------------------------------------------

GBWName                                 ... run.gbw
Number of atoms                         ...     92
Number of basis functions               ...    948
Max core memory                         ...   4096 MB

Electric field perturbation             ...  NO
Quadrupolar field perturbation          ...  NO
Magnetic field perturbation (no GIAO)   ...  NO
Magnetic field perturbation (with GIAO) ...  NO
Linear momentum (velocity) perturbation ...  NO
Spin-orbit coupling perturbation        ...  NO
Choice of electric origin               ... Center of mass
Position of electric origin             ...    -0.200403    -1.759833    -1.696788
Choice of magnetic origin               ... GIAO
Position of magnetic origin             ...     0.000000     0.000000     0.000000
Nuclear geometric perturbations         ... YES ( 276 perturbations)
Nucleus-orbit perturbations             ...  NO (   0 perturbations)
Spin-dipole/Fermi contact perturbations ...  NO (   0 perturbations)

Total number of real perturbations      ...    276
Total number of imaginary perturbations ...      0
Total number of triplet perturbations   ...      0
Total number of SOC perturbations       ...      0

Using XC Grid                  ... (run.grid_cpscf.tmp) 
Recalculating density on grid  ... (run.grho_cpscf0.tmp) done
Calculating the xc-kernel      ... (run.fxc_cpscf0.tmp) done

                                **********************
                                * REAL PERTURBATIONS *
                                **********************



-------------------
SHARK CP-SCF DRIVER
-------------------

Dimension of the orbital basis          ...    948
Dimension of the CPSCF-problem          ... 179732
Number of operators                     ...      1
Max. number of iterations               ...    128
Convergence Tolerance                   ... 1.0e-03
Number of perturbations                 ...    276
Perturbation type                       ... REAL

----------------------------
POPLE LINEAR EQUATION SOLVER
----------------------------

  ITERATION   0: 
ORCA finished by error termination in SCF RESPONSE
Calling Command: mpirun -np 24  /home/mehlhorn/programs/orca6/orca_scfresp_mpi run.respinp.tmp run 1 run 
[file orca_tools/qcmsg.cpp, line 394]: 
  .... aborting the run

