
                                 *****************
                                 * O   R   C   A *
                                 *****************

                                            #,                                       
                                            ###                                      
                                            ####                                     
                                            #####                                    
                                            ######                                   
                                           ########,                                 
                                     ,,################,,,,,                         
                               ,,#################################,,                 
                          ,,##########################################,,             
                       ,#########################################, ''#####,          
                    ,#############################################,,   '####,        
                  ,##################################################,,,,####,       
                ,###########''''           ''''###############################       
              ,#####''   ,,,,##########,,,,          '''####'''          '####       
            ,##' ,,,,###########################,,,                        '##       
           ' ,,###''''                  '''############,,,                           
         ,,##''                                '''############,,,,        ,,,,,,###''
      ,#''                                            '''#######################'''  
     '                                                          ''''####''''         
             ,#######,   #######,   ,#######,      ##                                
            ,#'     '#,  ##    ##  ,#'     '#,    #''#        ,####,    ,#,          
            ##       ##  ##   ,#'  ##            #'  '#       #'       ,# #          
            ##       ##  #######   ##           ,######,      #####,      #          
            '#,     ,#'  ##    ##  '#,     ,#' ,#      #,     #,   #      #          
             '#######'   ##     ##  '#######'  #'      '#     '####' #    #          



                #########################################################
                #                        -***-                          #
                #          Department of theory and spectroscopy        #
                #                                                       #
                #                      Frank Neese                      #
                #                                                       #
                #     Directorship, Architecture, Infrastructure        #
                #                    SHARK, DRIVERS                     #
                #        Core code/Algorithms in most modules           #
                #                                                       #
                #        Max Planck Institute fuer Kohlenforschung      #
                #                Kaiser Wilhelm Platz 1                 #
                #                 D-45470 Muelheim/Ruhr                 #
                #                      Germany                          #
                #                                                       #
                #                  All rights reserved                  #
                #                        -***-                          #
                #########################################################


                         Program Version 6.1.0  -  RELEASE   -
                                (GIT: $679e74b$)
                          ($2025-06-10 18:02:51 +0200$)


 With contributions from (in alphabetic order):
[Max-Planck-Institut fuer Kohlenforschung]                               
  Daniel Aravena         : Magnetic Suceptibility                        
  Michael Atanasov       : Ab Initio Ligand Field Theory (pilot matlab implementation)
  Alexander A. Auer      : GIAO ZORA, VPT2 properties, NMR spectrum      
  Ute Becker             : All parallelization in ORCA, NUMFREQ, NUMCALC 
  Giovanni Bistoni       : ED, misc. LED, open-shell LED, HFLD           
  Dmytro Bykov           : pre 5.0 version of the SCF Hessian            
  Marcos Casanova-Páez   : Triplet and SCS-CIS(D). UHF-(DLPNO)-IP/EA/STEOM-CCSD. UHF-CVS-IP/STEOM-CCSD   
  Vijay G. Chilkuri      : MRCI spin determinant printing, contributions to CSF-ICE 
  Pauline Colinet        : FMM embedding                                 
  Dipayan Datta          : RHF DLPNO-CCSD density                        
  Achintya Kumar Dutta   : EOM-CC, STEOM-CC                              
  Nicolas Foglia         : Exact transition moments, OPA infrastructure, MCD improvements    
  Dmitry Ganyushin       : Spin-Orbit,Spin-Spin,Magnetic field MRCI      
  Miquel Garcia-Rates    : C-PCM and meta-GGA Hessian, CCSD/C-PCM, Gaussian charge scheme 
  Tiago L. C. Gouveia    : GS-ROHF, GS-ROCIS                             
  Yang Guo               : DLPNO-NEVPT2, F12-NEVPT2, CIM, IAO-localization        
  Andreas Hansen         : Spin unrestricted coupled pair/coupled cluster methods 
  Ingolf Harden          : AUTO-CI MPn and infrastructure                
  Benjamin Helmich-Paris : MC-RPA, TRAH-(SCF,CASSCF), AVAS, COSX integrals, SCF dyn. polar., MC-PDFT, srDFT 
  Lee Huntington         : MR-EOM, pCC                                   
  Robert Izsak           : Overlap fitted RIJCOSX, COSX-SCS-MP3, EOM     
  Riya Kayal             : Wick's Theorem for AUTO-CI, AUTO-CI UHF-CCSDT 
  Emily Kempfer          : AUTO-CI RHF CISDT and CCSDT, approximate NEVPT4
  Christian Kollmar      : KDIIS, OOCD, Brueckner-CCSD(T), CCSD density, CASPT2, CASPT2-K, improved NEVPT2 
  Axel Koslowski         : Symmetry handling                             
  Simone Kossmann        : meta-GGA functionals, TD-DFT gradient, OOMP2, (MP2 Hessian; deprecated post 5.0) 
  Lucas Lang             : DCDCAS, Hyperfine gauge corrections, ICE-SOC+SSC
  Marvin Lechner         : AUTO-CI (C++ implementation), FIC-MRCC        
  Spencer Leger          : CASSCF response                               
  Dagmar Lenk            : GEPOL surface, SMD, ORCA-2-JSON               
  Dimitrios Liakos       : Extrapolation schemes; Compound Job, Property file
  Dimitrios Manganas     : Further ROCIS development; embedding schemes. LFT, Crystal Embedding 
  Dimitrios Pantazis     : SARC Basis sets                               
  Anastasios Papadopoulos: AUTO-CI, single reference methods and gradients 
  Taras Petrenko         : pre 6.0 DFT Hessian and TD-DFT gradient,  ECA, NRVS 
  Petra Pikulova         : Analytic Raman intensities                    
  Peter Pinski           : DLPNO-MP2, DLPNO-MP2 Gradient                 
  Shashank Vittal Rao    : ES-AILFT, MagRelax                            
  Christoph Reimann      : Effective Core Potentials                     
  Marius Retegan         : Local ZFS, SOC                                
  Christoph Riplinger    : Optimizer, TS searches, QM/MM, DLPNO-CCSD(T), (RO)-DLPNO pert. Triples 
  Michael Roemelt        : Original ROCIS implementation, recursive CI coupling coefficients
  Masaaki Saitow         : Open-shell DLPNO-CCSD energy and density      
  Barbara Sandhoefer     : DKH picture change effects                    
  Yorick L. A. Schmerwitz: GMF and freeze-and-release deltaSCF, NEB S-IDPP initial path                    
  Kantharuban Sivalingam : CASSCF convergence/infrastructure, NEVPT2, NEVPT3, NEVPT4(SD), FIC-MRCI and CEPA variants
  Bernardo de Souza      : ESD, SOC TD-DFT                               
  Georgi L. Stoychev     : AutoAux, RI-MP2 NMR, DLPNO-MP2 response, X2C  
  Van Anh Tran           : RI-MP2 g-tensors                              
  Willem Van den Heuvel  : Paramagnetic NMR                              
  Zikuan Wang            : NOTCH, Electric field optimization            
  Frank Wennmohs         : Technical directorship and infrastructure     
  Hang Xu                : AUTO-CI-Response properties                   
                                                                         
[FACCTs GmbH]                                                            
  Markus Bursch, Nicolas Foglia, Miquel Garcia-Rates, Ingolf Harden, Hagen Neugebauer, Anastasios Papadopoulos, 
  Christoph Riplinger, Bernardo de Souza, Georgi L. Stoychev                                                    
                                                                 
  APM, various basis sets, CI-OPT, improved COSX, DLPNO-Multilevel,           
  DOCKER, DRACO, updates on ESD, Fragmentator, GOAT, IRC, LR-CPCM, L-BFGS, MBIS, meta-GGA TD-DFT gradient, ML-optimized integration grids, 
  MM, NACMEs, nearIR, NEB, NEB-TS, NL-DFT gradient (VV10), 2- and 3-layer-ONIOM, interface openCOSMO-RS, QMMM,   
  Crystal-QMMM, RESP, rigid body optimization, SF, symmetry and pop. for TD-DFT, various functionals, SOLVATOR                                   
                                                                         
[Other institutions]                                                     
  V. Asgeirsson          : NEB                                           
  Christoph Bannwarth    : sTDA-DFT, sTD-DFT, PBEh-3c, B97-3c, D3        
  Giovanni Bistoni       : ETS/NOCV, ADLD/ADEX, COVALED                  
  Martin Brehm           : Molecular dynamics                            
  Ronald Cardenas        : ETS/NOCV                                      
  Martina Colucci        : COVALED                                       
  Sebastian Ehlert       : rSCAN, r2SCAN, r2SCAN-3c, D4, dhf basis sets  
  Marvin Friede          : D4 for Fr, Ra, Ac-Lr                          
  Lars Goerigk           : TD-DFT with DH, B97 family of functionals     
  Stefan Grimme          : VdW corrections, initial TS optimization, DFT functionals, gCP, sTDA/sTD-DF 
  Waldemar Hujo          : DFT-NL                                        
  H. Jonsson             : NEB                                           
  Holger Kruse           : gCP                                           
  Marcel Mueller         : wB97X-3c, vDZP basis set                      
  Hagen Neugebauer       : wr2SCAN, Native XTB                           
  Gianluca Regni         : ADLD/ADEX                                     
  Tobias Risthaus        : pre 6.0 range-separated hybrid DFT and stability analysis
  Lukas Wittmann         : regularized MP2, r2SCAN double-hybrids, wr2SCAN        
                                                                         
We gratefully acknowledge several colleagues who have allowed us to      
interface, adapt or use parts of their codes:                            
  Ed Valeev, F. Pavosevic, A. Kumar             : LibInt (2-el integral package), F12 methods 
  Garnet Chan, S. Sharma, J. Yang, R. Olivares  : DMRG                   
  Ulf Ekstrom                                   : XCFun DFT Library      
  Mihaly Kallay                                 : mrcc  (arbitrary order and MRCC methods)
  Frank Weinhold                                : gennbo (NPA and NBO analysis)           
  Simon Mueller                                 : openCOSMO-RS                            
  Christopher J. Cramer and Donald G. Truhlar   : smd solvation model                     
  S Lehtola, MJT Oliveira, MAL Marques          : LibXC Library                           
  Liviu Ungur et al                             : ANISO software                          


 Your calculation uses the libint2 library for the computation of 2-el integrals
 For citations please refer to: http://libint.valeyev.net

 Your ORCA version has been built with support for libXC version: 7.0.0
 For citations please refer to: https://libxc.gitlab.io

 This ORCA versions uses:
   CBLAS   interface :  Fast vector & matrix operations
   LAPACKE interface :  Fast linear algebra routines
   SCALAPACK package :  Parallel linear algebra routines
   Shared memory     :  Shared parallel matrices
   BLAS/LAPACK       :  OpenBLAS 0.3.29  USE64BITINT DYNAMIC_ARCH NO_AFFINITY Bulldozer SINGLE_THREADED
        Core in use  :  Bulldozer
   Copyright (c) 2011-2014, The OpenBLAS Project


  ***********************************
  * Starting time: Thu Aug 14 16:42:11 2025
  * Host name:     chromium09
  * Process ID:    251264
  * Working dir.:  /local/scratch/mehlhorn/61924
  ***********************************



***************************************
The coordinates will be read from file: start.xyz
***************************************


Your calculation utilizes the atom-pairwise dispersion correction
with the Becke-Johnson damping scheme (D3BJ)


Warning: RI is on but no J-basis has been assigned. Assigning Def2/J (nothing to worry about!)
================================================================================

----- Orbital basis set information -----
Your calculation utilizes the basis: def2-SV(P)
   F. Weigend and R. Ahlrichs, Phys. Chem. Chem. Phys. 7, 3297 (2005).

----- AuxJ basis set information -----
Your calculation utilizes the auxiliary basis: def2/J
   H-Rn: F. Weigend, Phys. Chem. Chem. Phys. 8, 1057 (2006).
   Fr-Lr: K. Eichkorn, F. Weigend, O. Treutler, R. Ahlrichs; Theor. Chem. Acc. 97, 119 (1997).

================================================================================
                                        WARNINGS
                       Please study these warnings very carefully!
================================================================================


WARNING: Gradients are needed
  ===> : At least TightSCF should be used for SCF convergence

WARNING: Geometry Optimization
  ===> : Switching off AutoStart
         For restart on a previous wavefunction, please use MOREAD

================================================================================
                                       INPUT FILE
================================================================================
NAME = run.inp
|  1> # Geometry optimization for (AlH3)n cluster
|  2> 
|  3> %pal nprocs 24  end
|  4> 
|  5> %geom MaxIter 500 end
|  6> 
|  7> 
|  8> ! PBE def2-SV(P)
|  9> ! RKS	# closed shell for AlH3
| 10> ! D3    #  dispersion correction
| 11> ! Freq 	# Frequency analysis to check the stabiltity of the structures
| 12> 
| 13> ! NoPop # population analysis not necessary	
| 14> 
| 15> ! RI
| 16> ! DEFGRID2
| 17> ! NormalSCF
| 18> ! SloppyOpt
| 19> 
| 20> ! SmallPrint
| 21> 
| 22> 
| 23> * xyzFile 0 1 start.xyz # only maingroup elements H and Al so there should be no net spin
| 24> 
| 25>                          ****END OF INPUT****
================================================================================

                       *****************************
                       * Geometry Optimization Run *
                       *****************************

Geometry optimization settings:
Update method            Update   .... BFGS
Choice of coordinates    CoordSys .... (2022) Redundant Internals
Initial Hessian          InHess   .... Almloef's Model
Max. no of cycles        MaxIter  .... 500

Convergence Tolerances:
Energy Change            TolE     ....  8.0000e-05 Eh
Max. Gradient            TolMAXG  ....  5.0000e-03 Eh/bohr
RMS Gradient             TolRMSG  ....  1.0000e-03 Eh/bohr
Max. Displacement        TolMAXD  ....  3.0000e-02 bohr
RMS Displacement         TolRMSD  ....  2.0000e-02 bohr
Strict Convergence                .... False

------------------------------------------------------------------------------
                        ORCA OPTIMIZATION COORDINATE SETUP
------------------------------------------------------------------------------

The optimization will be done in redundant internal coordinates (2022)
Making redundant internal coordinates   ...  (2022 redundants) done
Evaluating the initial hessian          ...  (Almloef) done
Evaluating the coordinates              ...  done
Calculating the B-matrix                .... done
Calculating the G-matrix                .... done
The number of degrees of freedom        ....  209

    -----------------------------------------------------------------
                    Redundant Internal Coordinates


    -----------------------------------------------------------------
         Definition                    Initial Value    Approx d2E/dq
    -----------------------------------------------------------------
      1. B(Al  1,Al  0)                  3.1887         0.041419   
      2. B(H   2,Al  1)                  1.7014         0.267051   
      3. B(H   3,Al  1)                  1.5963         0.392920   
      4. B(H   4,Al  1)                  1.6275         0.350343   
      5. B(H   5,Al  0)                  1.5953         0.394337   
      6. B(H   6,Al  0)                  1.7025         0.265963   
      7. B(H   7,Al  1)                  1.5576         0.452920   
      8. B(Al  8,H   2)                  1.7011         0.267316   
      9. B(Al  8,Al  1)                  3.2024         0.039391   
     10. B(H   9,Al  8)                  1.5224         0.515476   
     11. B(H  10,Al  8)                  1.5969         0.391948   
     12. B(H  11,Al  0)                  1.5979         0.390588   
     13. B(Al 12,Al  8)                  3.0079         0.080461   
     14. B(Al 12,H   6)                  1.7019         0.266550   
     15. B(Al 12,Al  0)                  3.1300         0.051382   
     16. B(Al 12,H   9)                  1.8822         0.137422   
     17. B(H  13,Al 12)                  1.9367         0.112488   
     18. B(H  14,Al 12)                  1.2193         1.569177   
     19. B(H  15,Al  8)                  1.5964         0.392662   
     20. B(Al 16,H  13)                  1.6165         0.364757   
     21. B(Al 16,Al 12)                  2.5955         0.366129   
     22. B(H  17,Al 16)                  1.9327         0.114144   
     23. B(H  18,Al 16)                  1.5655         0.439932   
     24. B(H  19,H  17)                  2.8828         0.010000   
     25. B(H  19,H  13)                  2.4224         0.010000   
     26. B(H  19,Al 16)                  2.3240         0.027119   
     27. A(H   5,Al  0,H  11)          109.6796         0.381736   
     28. A(Al  1,Al  0,H   6)           89.1448         0.285555   
     29. A(H   6,Al  0,H  11)          109.6231         0.356771   
     30. A(Al  1,Al  0,H   5)          117.4708         0.303881   
     31. A(Al  1,Al  0,Al 12)           88.3807         0.254261   
     32. A(H   5,Al  0,Al 12)          129.4012         0.314625   
     33. A(Al  1,Al  0,H  11)          119.2182         0.303417   
     34. A(H   5,Al  0,H   6)          109.2681         0.357350   
     35. A(H  11,Al  0,Al 12)           89.8896         0.314138   
     36. A(H   6,Al  0,Al 12)           23.1555         0.295383   
     37. A(H   3,Al  1,H   4)           82.5059         0.374387   
     38. A(H   2,Al  1,H   3)          109.1148         0.357379   
     39. A(Al  0,Al  1,Al  8)           87.9291         0.244613   
     40. A(H   3,Al  1,H   7)          130.4463         0.391466   
     41. A(H   4,Al  1,H   7)          134.2234         0.383716   
     42. A(Al  0,Al  1,H   4)           36.1512         0.298204   
     43. A(H   7,Al  1,Al  8)           79.4821         0.308219   
     44. A(H   2,Al  1,Al  8)           19.7470         0.283514   
     45. A(H   4,Al  1,Al  8)          107.4058         0.295841   
     46. A(Al  0,Al  1,H   3)          118.4095         0.303706   
     47. A(H   2,Al  1,H   7)           98.4486         0.366152   
     48. A(Al  0,Al  1,H   7)          101.7511         0.310724   
     49. A(H   3,Al  1,Al  8)          126.6046         0.301280   
     50. A(H   2,Al  1,H   4)           97.8023         0.350502   
     51. A(Al  0,Al  1,H   2)           89.4044         0.285737   
     52. A(Al  1,H   2,Al  8)          140.5028         0.334973   
     53. A(Al  0,H   6,Al 12)          133.6804         0.334586   
     54. A(Al 12,Al  8,H  15)          137.4727         0.338490   
     55. A(H  10,Al  8,H  15)          109.6409         0.381685   
     56. A(H   9,Al  8,H  15)          159.5759         0.400408   
     57. A(Al  1,Al  8,H  15)          100.1646         0.301249   
     58. A(H   9,Al  8,H  10)           66.1658         0.400280   
     59. A(H   2,Al  8,H  10)          109.2527         0.357289   
     60. A(Al  1,Al  8,H  10)          128.9367         0.301162   
     61. A(H   2,Al  8,H   9)           90.2838         0.374452   
     62. A(Al  1,Al  8,H   9)           97.2031         0.314734   
     63. A(Al  1,Al  8,H   2)           19.7502         0.283558   
     64. A(H   2,Al  8,H  15)          109.5674         0.357400   
     65. A(H   2,Al  8,Al 12)           93.9519         0.317694   
     66. A(Al  1,Al  8,Al 12)           90.2912         0.269850   
     67. A(H  10,Al  8,Al 12)           94.2615         0.338387   
     68. A(H   9,Al  8,Al 12)           31.3351         0.354340   
     69. A(Al  8,H   9,Al 12)          123.7917         0.334543   
     70. A(H   9,Al 12,Al 16)           88.9142         0.366200   
     71. A(Al  8,Al 12,Al 16)           95.6644         0.388549   
     72. A(H   6,Al 12,Al 16)          147.8332         0.411044   
     73. A(Al  0,Al 12,Al 16)          168.0904         0.359635   
     74. A(H  13,Al 12,H  14)          130.0297         0.390908   
     75. A(H   9,Al 12,H  14)           95.0894         0.404903   
     76. A(Al  8,Al 12,H  14)           70.2344         0.430373   
     77. A(H   6,Al 12,H  14)          107.8652         0.456009   
     78. A(Al  0,Al 12,H  14)           87.0099         0.397422   
     79. A(H   9,Al 12,H  13)          110.5416         0.262979   
     80. A(Al  8,Al 12,H  13)          127.8194         0.277006   
     81. A(H   6,Al 12,H  13)          116.9207         0.291124   
     82. A(Al  0,Al 12,H  13)          130.0472         0.258859   
     83. A(Al  8,Al 12,H   9)           24.8733         0.285721   
     84. A(H   6,Al 12,H   9)           83.2573         0.300494   
     85. A(Al  0,Al 12,H   9)           95.0081         0.266733   
     86. A(H   6,Al 12,Al  8)           90.1985         0.317546   
     87. A(Al  0,Al 12,Al  8)           92.5574         0.281062   
     88. A(H  13,Al 12,Al 16)           38.4412         0.353919   
     89. A(Al  0,Al 12,H   6)           23.1641         0.295486   
     90. A(H  14,Al 12,Al 16)          103.8703         0.570029   
     91. A(Al 16,H  13,H  19)           66.8408         0.132431   
     92. A(Al 12,H  13,H  19)          149.3546         0.122279   
     93. A(Al 12,H  13,Al 16)           93.4109         0.305996   
     94. A(H  17,Al 16,H  19)           84.7243         0.209897   
     95. A(H  13,Al 16,H  19)           73.4029         0.246258   
     96. A(Al 12,Al 16,H  19)          117.4112         0.280989   
     97. A(H  17,Al 16,H  18)          124.9782         0.316147   
     98. A(H  13,Al 16,H  18)          115.7180         0.384465   
     99. A(Al 12,Al 16,H  18)           72.6160         0.449718   
    100. A(H  18,Al 16,H  19)          130.0683         0.253072   
    101. A(H  13,Al 16,H  17)          114.6092         0.306714   
    102. A(Al 12,Al 16,H  17)          134.1853         0.354796   
    103. A(Al 12,Al 16,H  13)           48.1479         0.434739   
    104. A(Al 16,H  17,H  19)           53.3930         0.111769   
    105. A(H  13,H  19,H  17)           68.0192         0.093542   
    106. A(Al 16,H  19,H  17)           41.8827         0.105446   
    107. A(H  13,H  19,Al 16)           39.7564         0.113117   
    108. D(H   2,Al  1,Al  0,H   6)      3.2105         0.010000   
    109. D(H   3,Al  1,Al  0,H   5)      3.3638         0.010000   
    110. D(H   2,Al  1,Al  0,H   5)   -108.1482         0.010000   
    111. D(H   3,Al  1,Al  0,H  11)   -133.1616         0.010000   
    112. D(H   3,Al  1,Al  0,Al 12)    137.8710         0.010000   
    113. D(H   3,Al  1,Al  0,H   6)    114.7224         0.010000   
    114. D(H   2,Al  1,Al  0,H  11)    115.3264         0.010000   
    115. D(H   4,Al  1,Al  0,H   5)     -4.0038         0.010000   
    116. D(H   2,Al  1,Al  0,Al 12)     26.3590         0.010000   
    117. D(Al  8,H   2,Al  1,Al  0)    -85.5264         0.010000   
    118. D(Al  8,H   2,Al  1,H   7)     16.2658         0.010000   
    119. D(Al  8,H   2,Al  1,H   4)   -120.7928         0.010000   
    120. D(Al  8,H   2,Al  1,H   3)    154.4765         0.010000   
    121. D(Al 12,H   6,Al  0,Al  1)     87.8814         0.010000   
    122. D(Al 12,H   6,Al  0,H  11)    -32.9805         0.010000   
    123. D(Al 12,H   6,Al  0,H   5)   -153.2040         0.010000   
    124. D(H   9,Al  8,Al  1,H   2)    -70.2917         0.010000   
    125. D(H  10,Al  8,H   2,Al  1)    175.6990         0.010000   
    126. D(H   9,Al  8,Al  1,H   4)     -7.1771         0.010000   
    127. D(H  10,Al  8,Al  1,Al  0)     88.7882         0.010000   
    128. D(H   9,Al  8,Al  1,H   7)    126.0753         0.010000   
    129. D(H   9,Al  8,H   2,Al  1)    110.9323         0.010000   
    130. D(H   2,Al  8,Al  1,H   4)     63.1146         0.010000   
    131. D(H   2,Al  8,Al  1,H   7)   -163.6330         0.010000   
    132. D(H   9,Al  8,Al  1,H   3)   -100.7659         0.010000   
    133. D(H  15,Al  8,H   2,Al  1)    -64.1684         0.010000   
    134. D(H   2,Al  8,Al  1,Al  0)     94.0107         0.010000   
    135. D(H   2,Al  8,Al  1,H   3)    -30.4742         0.010000   
    136. D(Al 12,Al  8,H   2,Al  1)     79.7855         0.010000   
    137. D(H   9,Al  8,Al  1,Al  0)     23.7190         0.010000   
    138. D(Al 12,H   9,Al  8,Al  1)    -78.5958         0.014381   
    139. D(Al 12,H   9,Al  8,H  15)     69.5218         0.014381   
    140. D(Al 12,H   9,Al  8,H  10)    151.8589         0.014381   
    141. D(Al 12,H   9,Al  8,H   2)    -97.1457         0.014381   
    142. D(H   6,Al 12,H   9,Al  8)    105.2663         0.010000   
    143. D(Al  0,Al 12,H   9,Al  8)     85.2664         0.010000   
    144. D(H   9,Al 12,Al  8,Al  1)    103.4599         0.010000   
    145. D(H   6,Al 12,Al  8,H  10)    -98.9784         0.010000   
    146. D(H   6,Al 12,Al  8,H   9)    -73.3446         0.010000   
    147. D(H   6,Al 12,Al  8,H   2)     10.6905         0.010000   
    148. D(Al  0,Al 12,Al  8,H  15)    112.5268         0.010000   
    149. D(Al  0,Al 12,Al  8,H  10)   -122.0305         0.010000   
    150. D(Al  0,Al 12,Al  8,H   9)    -96.3967         0.010000   
    151. D(Al 16,Al 12,H   6,Al  0)    162.9478         0.010000   
    152. D(H  14,Al 12,H   6,Al  0)    -26.7905         0.010000   
    153. D(Al  0,Al 12,Al  8,Al  1)      7.0632         0.010000   
    154. D(H  13,Al 12,H   6,Al  0)    130.3659         0.010000   
    155. D(H   9,Al 12,H   6,Al  0)   -119.9862         0.010000   
    156. D(Al  8,Al 12,H   6,Al  0)    -96.0466         0.010000   
    157. D(H   9,Al 12,Al  0,H   6)     59.7064         0.010000   
    158. D(Al  8,Al 12,Al  0,H   5)    117.9327         0.010000   
    159. D(Al  8,Al 12,Al  0,H  11)   -126.3310         0.010000   
    160. D(H   9,Al 12,Al  0,Al  1)    -31.9055         0.010000   
    161. D(H   6,Al 12,Al  8,Al  1)     30.1153         0.010000   
    162. D(Al  8,Al 12,Al  0,H   6)     84.5154         0.010000   
    163. D(Al  0,Al 12,Al  8,H   2)    -12.3616         0.010000   
    164. D(Al  8,Al 12,Al  0,Al  1)     -7.0964         0.010000   
    165. D(H   6,Al 12,Al  8,H  15)    135.5789         0.010000   
    166. D(H   6,Al 12,Al  0,H  11)    149.1535         0.010000   
    167. D(H   9,Al 12,Al  0,H   5)     93.1237         0.010000   
    168. D(H   6,Al 12,Al  0,Al  1)    -91.6118         0.010000   
    169. D(H  13,Al 12,H   9,Al  8)   -138.4661         0.010000   
    170. D(H   6,Al 12,Al  0,H   5)     33.4173         0.010000   
    171. D(Al 16,Al 12,H   9,Al  8)   -105.9970         0.010000   
    172. D(H  14,Al 12,H   9,Al  8)     -2.1678         0.010000   
    173. D(H  19,H  13,Al 12,Al  8)     -8.7322         0.010000   
    174. D(H  19,H  13,Al 12,H   6)    104.7878         0.010000   
    175. D(H  19,H  13,Al 12,Al  0)    127.8370         0.010000   
    176. D(Al 16,H  13,Al 12,H  14)    -56.3126         0.010000   
    177. D(Al 16,H  13,Al 12,H   9)     59.6938         0.010000   
    178. D(Al 16,H  13,Al 12,Al  8)     39.0196         0.010000   
    179. D(Al 16,H  13,Al 12,H   6)    152.5397         0.010000   
    180. D(Al 16,H  13,Al 12,Al  0)    175.5889         0.010000   
    181. D(H  19,Al 16,H  13,Al 12)   -155.7708         0.010000   
    182. D(H  18,Al 16,H  13,H  19)    127.0115         0.010000   
    183. D(H  17,Al 16,H  13,H  19)    -75.9924         0.010000   
    184. D(H  17,Al 16,H  13,Al 12)    128.2369         0.010000   
    185. D(Al 12,Al 16,H  13,H  19)    155.7708         0.010000   
    186. D(H  17,Al 16,Al 12,H  13)    -84.7791         0.010000   
    187. D(H  17,Al 16,Al 12,H   9)    149.1796         0.010000   
    188. D(H  17,Al 16,Al 12,Al  8)    125.2064         0.010000   
    189. D(H  17,Al 16,Al 12,H   6)   -135.3401         0.010000   
    190. D(H  17,Al 16,Al 12,Al  0)   -101.3561         0.010000   
    191. D(H  13,Al 16,Al 12,H  14)    138.9843         0.010000   
    192. D(H  13,Al 16,Al 12,H   9)   -126.0413         0.010000   
    193. D(H  18,Al 16,H  13,Al 12)    -28.7593         0.010000   
    194. D(H  13,Al 16,Al 12,Al  8)   -150.0145         0.010000   
    195. D(H  13,Al 16,Al 12,H   6)    -50.5611         0.010000   
    196. D(H  13,Al 16,Al 12,Al  0)    -16.5771         0.010000   
    197. D(H  19,H  17,Al 16,H  18)   -136.4141         0.010000   
    198. D(H  19,H  17,Al 16,H  13)     69.0344         0.010000   
    199. D(H  19,H  17,Al 16,Al 12)    123.7096         0.010000   
    200. D(H  13,H  19,H  17,Al 16)    -37.6587         0.010000   
    201. D(H  17,H  19,Al 16,H  18)    132.4239         0.010000   
    202. D(H  17,H  19,Al 16,H  13)   -117.6392         0.010000   
    203. D(H  17,H  19,Al 16,Al 12)   -137.7812         0.010000   
    204. D(H  13,H  19,Al 16,H  18)   -109.9368         0.010000   
    205. D(H  13,H  19,Al 16,H  17)    117.6392         0.010000   
    206. D(H  13,H  19,Al 16,Al 12)    -20.1420         0.010000   
    207. D(H  17,H  19,H  13,Al 16)     39.6269         0.010000   
    208. D(H  17,H  19,H  13,Al 12)     93.1113         0.010000   
    209. D(Al 16,H  19,H  13,Al 12)     53.4843         0.010000   
    -----------------------------------------------------------------

Number of atoms                         .... 20
Number of degrees of freedom            .... 209


         *************************************************************
         *                GEOMETRY OPTIMIZATION CYCLE   1            *
         *************************************************************
---------------------------------
CARTESIAN COORDINATES (ANGSTROEM)
---------------------------------
  Al    -0.334910    1.128240    2.788780
  Al     0.131570   -0.237880   -0.054440
  H     -0.138010   -1.761440    0.653210
  H     -0.952330    0.005180   -1.200790
  H     -0.933150    0.611160    0.836730
  H     -1.687050    1.948480    2.998140
  H     -0.504810   -0.419960    3.476290
  H      1.686410   -0.292100   -0.129050
  Al     0.695350   -2.986740    1.488620
  H     -0.073070   -2.653160    2.759770
  H     -0.339650   -4.118820    1.932870
  H      0.875790    1.897910    3.492360
  Al     0.594870   -1.544490    4.126330
  H      0.170530   -2.280430    5.866800
  H      1.677000   -1.359000    3.595910
  H      1.808520   -3.621220    0.536310
  Al     0.971960   -3.656210    5.587480
  H      2.248440   -4.136350    6.957000
  H      1.052110   -4.103570    4.089410
  H     -0.623360   -4.134620    7.208260

----------------------------
CARTESIAN COORDINATES (A.U.)
----------------------------
  NO LB      ZA    FRAG     MASS         X           Y           Z
   0 Al   13.0000    0    26.982   -0.632888    2.132065    5.270030
   1 Al   13.0000    0    26.982    0.248631   -0.449528   -0.102877
   2 H     1.0000    0     1.008   -0.260801   -3.328639    1.234388
   3 H     1.0000    0     1.008   -1.799643    0.009789   -2.269164
   4 H     1.0000    0     1.008   -1.763398    1.154925    1.581191
   5 H     1.0000    0     1.008   -3.188062    3.682094    5.665664
   6 H     1.0000    0     1.008   -0.953953   -0.793609    6.569236
   7 H     1.0000    0     1.008    3.186853   -0.551989   -0.243869
   8 Al   13.0000    0    26.982    1.314021   -5.644121    2.813084
   9 H     1.0000    0     1.008   -0.138082   -5.013746    5.215209
  10 H     1.0000    0     1.008   -0.641845   -7.783442    3.652595
  11 H     1.0000    0     1.008    1.655003    3.586530    6.599604
  12 Al   13.0000    0    26.982    1.124141   -2.918663    7.797634
  13 H     1.0000    0     1.008    0.322255   -4.309388   11.086645
  14 H     1.0000    0     1.008    3.169071   -2.568138    6.795285
  15 H     1.0000    0     1.008    3.417608   -6.843114    1.013479
  16 Al   13.0000    0    26.982    1.836738   -6.909236   10.558807
  17 H     1.0000    0     1.008    4.248936   -7.816569   13.146825
  18 H     1.0000    0     1.008    1.988200   -7.754623    7.727865
  19 H     1.0000    0     1.008   -1.177980   -7.813299   13.621637

--------------------------------
INTERNAL COORDINATES (ANGSTROEM)
--------------------------------
 Al     0   0   0     0.000000000000     0.00000000     0.00000000
 Al     1   0   0     3.188696820521     0.00000000     0.00000000
 H      2   1   0     1.701375024061    89.40442192     0.00000000
 H      2   1   3     1.596256776368   118.40948604   111.51198666
 H      2   1   3     1.627477056336    36.15121844   104.14441292
 H      1   2   3     1.595276730477   117.47081525   251.85176374
 H      1   2   3     1.702486196743    89.14476205     3.21046077
 H      2   1   3     1.557573075685   101.75109048   261.49404049
 Al     3   2   1     1.701105184196   140.50277328   274.47363588
 H      9   3   2     1.522355817574    90.28375695   110.93226490
 H      9   3   2     1.596930865410   109.25269562   175.69900891
 H      1   2   3     1.597877096431   119.21817801   115.32643808
 Al     7   1   2     1.701885961191   133.68037010    87.88138971
 H     13   7   1     1.936726088041   116.92065137   130.36593246
 H     13   7   1     1.219326557326   107.86521132   333.20948599
 H      9   3   2     1.596435609538   109.56737133   295.83155502
 Al    14  13   7     1.616502494802    93.41086894   152.53970090
 H     17  14  13     1.932749502755   114.60924408   128.23686184
 H     17  14  13     1.565493122629   115.71800657   331.24074761
 H     17  14  13     2.323972856748    73.40288193   204.22923330

---------------------------
INTERNAL COORDINATES (A.U.)
---------------------------
 Al     0   0   0     0.000000000000     0.00000000     0.00000000
 Al     1   0   0     6.025763714890     0.00000000     0.00000000
 H      2   1   0     3.215132846570    89.40442192     0.00000000
 H      2   1   3     3.016488146751   118.40948604   111.51198666
 H      2   1   3     3.075485925715    36.15121844   104.14441292
 H      1   2   3     3.014636128418   117.47081525   251.85176374
 H      1   2   3     3.217232658625    89.14476205     3.21046077
 H      2   1   3     2.943386546615   101.75109048   261.49404049
 Al     3   2   1     3.214622923125   140.50277328   274.47363588
 H      9   3   2     2.876835573596    90.28375695   110.93226490
 H      9   3   2     3.017761990431   109.25269562   175.69900891
 H      1   2   3     3.019550107921   119.21817801   115.32643808
 Al     7   1   2     3.216098377817   133.68037010    87.88138971
 H     13   7   1     3.659881902819   116.92065137   130.36593246
 H     13   7   1     2.304193261163   107.86521132   333.20948599
 H      9   3   2     3.016826092466   109.56737133   295.83155502
 Al    14  13   7     3.054747009976    93.41086894   152.53970090
 H     17  14  13     3.652367245680   114.60924408   128.23686184
 H     17  14  13     2.958353266307   115.71800657   331.24074761
 H     17  14  13     4.391672241920    73.40288193   204.22923330

---------------------
BASIS SET INFORMATION
---------------------
There are 2 groups of distinct atoms

 Group   1 Type Al  : 10s7p1d contracted to 4s3p1d pattern {5311/511/1}
 Group   2 Type H   : 4s contracted to 2s pattern {31}

Atom   0Al   basis set group =>   1
Atom   1Al   basis set group =>   1
Atom   2H    basis set group =>   2
Atom   3H    basis set group =>   2
Atom   4H    basis set group =>   2
Atom   5H    basis set group =>   2
Atom   6H    basis set group =>   2
Atom   7H    basis set group =>   2
Atom   8Al   basis set group =>   1
Atom   9H    basis set group =>   2
Atom  10H    basis set group =>   2
Atom  11H    basis set group =>   2
Atom  12Al   basis set group =>   1
Atom  13H    basis set group =>   2
Atom  14H    basis set group =>   2
Atom  15H    basis set group =>   2
Atom  16Al   basis set group =>   1
Atom  17H    basis set group =>   2
Atom  18H    basis set group =>   2
Atom  19H    basis set group =>   2
---------------------------------
AUXILIARY/J BASIS SET INFORMATION
---------------------------------
There are 2 groups of distinct atoms

 Group   1 Type Al  : 14s5p5d2f1g contracted to 8s4p3d1f1g pattern {71111111/2111/311/2/1}
 Group   2 Type H   : 5s2p1d contracted to 3s1p1d pattern {311/2/1}

Atom   0Al   basis set group =>   1
Atom   1Al   basis set group =>   1
Atom   2H    basis set group =>   2
Atom   3H    basis set group =>   2
Atom   4H    basis set group =>   2
Atom   5H    basis set group =>   2
Atom   6H    basis set group =>   2
Atom   7H    basis set group =>   2
Atom   8Al   basis set group =>   1
Atom   9H    basis set group =>   2
Atom  10H    basis set group =>   2
Atom  11H    basis set group =>   2
Atom  12Al   basis set group =>   1
Atom  13H    basis set group =>   2
Atom  14H    basis set group =>   2
Atom  15H    basis set group =>   2
Atom  16Al   basis set group =>   1
Atom  17H    basis set group =>   2
Atom  18H    basis set group =>   2
Atom  19H    basis set group =>   2


           ************************************************************
           *        Program running with 24 parallel MPI-processes    *
           *              working on a common directory               *
           ************************************************************
------------------------------------------------------------------------------
                             ORCA STARTUP CALCULATIONS
                           -- RI-GTO INTEGRALS CHOSEN --
------------------------------------------------------------------------------
------------------------------------------------------------------------------
                   ___                                                        
                  /   \      - P O W E R E D   B Y -                         
                 /     \                                                     
                 |  |  |   _    _      __       _____    __    __             
                 |  |  |  | |  | |    /  \     |  _  \  |  |  /  |          
                  \  \/   | |  | |   /    \    | | | |  |  | /  /          
                 / \  \   | |__| |  /  /\  \   | |_| |  |  |/  /          
                |  |  |   |  __  | /  /__\  \  |    /   |      \           
                |  |  |   | |  | | |   __   |  |    \   |  |\   \          
                \     /   | |  | | |  |  |  |  | |\  \  |  | \   \       
                 \___/    |_|  |_| |__|  |__|  |_| \__\ |__|  \__/        
                                                                              
                      - O R C A' S   B I G   F R I E N D -                    
                                      &                                       
                       - I N T E G R A L  F E E D E R -                       
                                                                              
 v1 FN, 2020, v2 2021, v3 2022-2024                                           
------------------------------------------------------------------------------


----------------------
SHARK INTEGRAL PACKAGE
----------------------

Number of atoms                             ...     20
Number of basis functions                   ...    120
Number of shells                            ...     70
Maximum angular momentum                    ...      2
Integral batch strategy                     ... SHARK/LIBINT Hybrid
RI-J (if used) integral strategy            ... SPLIT-RIJ (Revised 2003 algorithm where possible)
Printlevel                                  ...      1
Contraction scheme used                     ... SEGMENTED contraction
Prescreening option                         ... SCHWARTZ
   Thresh                                   ... 1.000e-10
   Tcut                                     ... 1.000e-11
   Tpresel                                  ... 1.000e-11 
Coulomb Range Separation                    ... NOT USED
Exchange Range Separation                   ... NOT USED
Multipole approximations                    ... NOT USED
Finite Nucleus Model                        ... NOT USED
CABS basis                                  ... NOT available
Auxiliary Coulomb fitting basis             ... AVAILABLE
   # of basis functions in Aux-J            ...    420
   # of shells in Aux-J                     ...    160
   Maximum angular momentum in Aux-J        ...      4
Auxiliary J/K fitting basis                 ... NOT available
Auxiliary Correlation fitting basis         ... NOT available
Auxiliary 'external' fitting basis          ... NOT available

Checking pre-screening integrals            ... done (  0.0 sec) Dimension = 70
   => SHARK Basis and OBASIS are compatible. Storing Pre-screening
Shell pair information
Shell pair cut-off parameter TPreSel        ...   1.0e-11
Total number of shell pairs                 ...      2485
Shell pairs after pre-screening             ...      2258
Total number of primitive shell pairs       ...     11485
Primitive shell pairs kept                  ...      6864
          la=0 lb=0:   1137 shell pairs
          la=1 lb=0:    684 shell pairs
          la=1 lb=1:    113 shell pairs
          la=2 lb=0:    236 shell pairs
          la=2 lb=1:     73 shell pairs
          la=2 lb=2:     15 shell pairs

Checking whether 4 symmetric matrices of dimension 120 fit in memory
:Max Core in MB      =   4096.00
 MB in use           =      6.32
 MB left             =   4089.68
 MB needed           =      0.22
 Data fit in memory  = YES
Calculating RI/J V-Matrix + Cholesky decomp.... done (  0.1 sec)
Calculating Nuclear repulsion               ... done (  0.0 sec) ENN=    421.825199668336 Eh

Diagonalization of the overlap matrix:
Smallest eigenvalue                        ... 3.124e-03
Time for diagonalization                   ...    0.029 sec
Threshold for overlap eigenvalues          ... 1.000e-07
Number of eigenvalues below threshold      ... 0
Time for construction of square roots      ...    0.002 sec
Total time needed                          ...    0.033 sec

-------------------
DFT GRID GENERATION
-------------------

General Integration Accuracy     IntAcc      ... 4.388
Radial Grid Type                 RadialGrid  ... OptM3 with GC (2021)
Angular Grid (max. ang.)         AngularGrid ... 4 (Lebedev-302)
Angular grid pruning method      GridPruning ... 4 (adaptive)
Weight generation scheme         WeightScheme... mBecke (2022)
Basis function cutoff            BFCut       ... 1.0000e-10
Integration weight cutoff        WCut        ... 1.0000e-14
Partially contracted basis set               ... off
Rotationally invariant grid construction     ... off
Angular grids for H and He will be reduced by one unit

Total number of grid points                  ...    84799
Total number of batches                      ...     1336
Average number of points per batch           ...       63
Average number of grid points per atom       ...     4240
Grids setup in   1.3 sec
Initializing property integral containers    ... done (  0.0 sec)

SHARK setup successfully completed in   1.7 seconds

Maximum memory used throughout the entire STARTUP-calculation: 20.0 MB


           ************************************************************
           *        Program running with 24 parallel MPI-processes    *
           *              working on a common directory               *
           ************************************************************
-------------------------------------------------------------------------------
                                 ORCA GUESS
                   Start orbitals & Density for SCF / CASSCF
-------------------------------------------------------------------------------

------------
SCF SETTINGS
------------
Hamiltonian:
 Density Functional     Method          .... DFT(GTOs)
 Exchange Functional    Exchange        .... PBE
   PBE kappa parameter   XKappa         ....  0.804000
   PBE mue parameter    XMuePBE         ....  0.219520
 Correlation Functional Correlation     .... PBE
   PBE beta parameter  CBetaPBE         ....  0.066725
 LDA part of GGA corr.  LDAOpt          .... PW91-LDA
 Gradients option       PostSCFGGA      .... off
   NL short-range parameter             ....  6.400000
 RI-approximation to the Coulomb term is turned on
   Number of AuxJ basis functions       .... 420


General Settings:
 Integral files         IntName         .... run
 Hartree-Fock type      HFTyp           .... RHF
 Total Charge           Charge          ....    0
 Multiplicity           Mult            ....    1
 Number of Electrons    NEL             ....   80
 Basis Dimension        Dim             ....  120
 Nuclear Repulsion      ENuc            ....    421.8251996683 Eh

Convergence Acceleration:
 AO-DIIS                CNVDIIS         .... on
   Start iteration      DIISMaxIt       ....    12
   Startup error        DIISStart       ....  0.200000
   # of expansion vecs  DIISMaxEq       ....     5
   Bias factor          DIISBfac        ....   1.050
   Max. coefficient     DIISMaxC        ....  10.000
 MO-DIIS                CNVKDIIS        .... off
 Trust-Rad. Augm. Hess. CNVTRAH         .... auto
   Auto Start mean grad. ratio tolernc. ....  1.125000
   Auto Start start iteration           ....    50
   Auto Start num. interpolation iter.  ....    10
   Max. Number of Micro iterations      ....    24
   Max. Number of Macro iterations      .... Maxiter - #DIIS iter
   Number of Davidson start vectors     ....     2
   Converg. threshold    (grad. norm)   ....   5.000e-05
   Grad. Scal. Fac. for Micro threshold ....   0.100
   Minimum threshold for Micro iter.    ....   1.000e-02
   NR start threshold (gradient norm)   ....   1.000e-04
   Initial trust radius                 ....   0.400
   Minimum AH scaling param. (alpha)    ....   1.000
   Maximum AH scaling param. (alpha)    .... 1000.000
   Quad. conv. algorithm                .... NR
   White noise on init. David. guess    .... on
   Maximum white noise                  ....   0.010
   Pseudo random numbers                .... off
   Inactive MOs                         .... canonical
   Orbital update algorithm             .... Taylor
   Preconditioner                       .... Diag
   Full preconditioner red. dimension   ....   250
 SOSCF                 CNVSOSCF           .... on
   Start iteration     SOSCFMaxIt         ....   150
   Startup grad/error  SOSCFStart         ....  0.003300
   Hessian update      SOSCFHessUp        .... L-BFGS
   Autom. constraints  SOSCFAutoConstrain .... off
 Level Shifting         CNVShift        .... on
   Level shift para.    LevelShift      ....    0.2500
   Turn off err/grad.   ShiftErr        ....    0.0010
 Zerner damping         CNVZerner       .... off
 Static damping         CNVDamp         .... on
   Fraction old density DampFac         ....    0.7000
   Max. Damping (<1)    DampMax         ....    0.9800
   Min. Damping (>=0)   DampMin         ....    0.0000
   Turn off err/grad.   DampErr         ....    0.1000

SCF Procedure:
 Maximum # iterations   MaxIter         ....   125
 SCF integral mode      SCFMode         .... Direct
   Integral package                     .... SHARK and LIBINT hybrid scheme
 Reset frequency        DirectResetFreq ....    20
 Integral Threshold     Thresh          ....  1.000e-10 Eh
 Primitive CutOff       TCut            ....  1.000e-11 Eh

Convergence Tolerance:
 Convergence Check Mode ConvCheckMode   .... Total+1el-Energy
 Convergence forced     ConvForced      .... 0
 Energy Change          TolE            ....  1.000e-06 Eh
 1-El. energy change                    ....  1.000e-03 Eh
 Orbital Gradient       TolG            ....  5.000e-05
 Orbital Rotation angle TolX            ....  5.000e-05
 DIIS Error             TolErr          ....  1.000e-05

------------------------------
INITIAL GUESS: MODEL POTENTIAL
------------------------------
Loading Hartree-Fock densities                     ... done
Calculating cut-offs                               ... done
Initializing the effective Hamiltonian             ... done
Setting up the integral package (SHARK)            ... done
Starting the Coulomb interaction                   ... done (   0.1 sec)
Making the grid                                    ... done (   0.2 sec)
Mapping shells                                     ... done
Starting the XC term evaluation                    ... done (   0.0 sec)
  promolecular density results
     # of electrons  =     79.984548599
     EX              =    -94.500572472
     EC              =     -2.763448408
     EX+EC           =    -97.264020880
Transforming the Hamiltonian                       ... done (   0.0 sec)
Diagonalizing the Hamiltonian                      ... done (   0.0 sec)
Back transforming the eigenvectors                 ... done (   0.0 sec)
Now organizing SCF variables                       ... done
                      ------------------
                      INITIAL GUESS DONE (   0.3 sec)
                      ------------------
             **** ENERGY FILE WAS UPDATED (run.en.tmp) ****
Finished Guess after   0.9 sec
Maximum memory used throughout the entire GUESS-calculation: 8.6 MB


           ************************************************************
           *        Program running with 24 parallel MPI-processes    *
           *              working on a common directory               *
           ************************************************************

-------------------------------------------------------------------------------------------
                                      ORCA LEAN-SCF
                              memory conserving SCF solver
-------------------------------------------------------------------------------------------

----------------------------------------D-I-I-S--------------------------------------------
Iteration    Energy (Eh)           Delta-E    RMSDP     MaxDP     DIISErr   Damp  Time(sec)
-------------------------------------------------------------------------------------------
               ***  Starting incremental Fock matrix formation  ***
    1    -1219.5679339395660463     0.00e+00  1.76e-02  8.43e-02  7.62e-02  0.700   0.3
Warning: op=0 Small HOMO/LUMO gap (   0.012) - skipping pre-diagonalization
         Will do a full diagonalization
    2    -1219.6177079627216244    -4.98e-02  2.02e-02  8.30e-02  5.50e-02  0.700   0.2
                               ***Turning on AO-DIIS***
    3    -1219.6430040358436599    -2.53e-02  8.64e-03  2.70e-02  3.56e-02  0.700   0.2
    4    -1219.6550884640341792    -1.21e-02  1.35e-02  4.93e-02  2.15e-02  0.000   0.2
    5    -1219.6814002966257249    -2.63e-02  4.11e-03  1.62e-02  8.91e-03  0.000   0.2
                              *** Initializing SOSCF ***
---------------------------------------S-O-S-C-F--------------------------------------
Iteration    Energy (Eh)           Delta-E    RMSDP     MaxDP     MaxGrad    Time(sec)
--------------------------------------------------------------------------------------
    6    -1219.6826155350777299    -1.22e-03  1.75e-03  5.58e-03  3.02e-03     0.2
               *** Restarting incremental Fock matrix formation ***
    7    -1219.6828512663405490    -2.36e-04  2.91e-03  1.21e-02  1.17e-03     0.2
    8    -1219.6828384076536622     1.29e-05  1.65e-03  7.55e-03  1.86e-03     0.2
    9    -1219.6829270979296780    -8.87e-05  6.98e-04  2.45e-03  3.20e-04     0.2
   10    -1219.6829286223903637    -1.52e-06  3.80e-04  1.92e-03  2.14e-04     0.2
   11    -1219.6829342063165313    -5.58e-06  8.12e-05  2.99e-04  2.83e-05     0.2
   12    -1219.6829342609048581    -5.46e-08  3.33e-05  1.33e-04  2.20e-05     0.2
                 **** Energy Check signals convergence ****

               *****************************************************
               *                     SUCCESS                       *
               *           SCF CONVERGED AFTER  12 CYCLES          *
               *****************************************************

             **** ENERGY FILE WAS UPDATED (run.en.tmp) ****

----------------
TOTAL SCF ENERGY
----------------

Total Energy       :      -1219.68293430835638 Eh          -33189.25995 eV

Components:
Nuclear Repulsion  :        421.82519966833610 Eh           11478.44724 eV
Electronic Energy  :      -1641.50813397669253 Eh          -44667.70719 eV
One Electron Energy:      -2532.08978851350639 Eh          -68901.66604 eV
Two Electron Energy:        890.58165453681374 Eh           24233.95885 eV

Virial components:
Potential Energy   :      -2435.56109500691582 Eh          -66274.98675 eV
Kinetic Energy     :       1215.87816069855967 Eh           33085.72680 eV
Virial Ratio       :          2.00312923920569

DFT components:
N(Alpha)           :       39.999925545431 electrons
N(Beta)            :       39.999925545431 electrons
N(Total)           :       79.999851090861 electrons
E(X)               :      -95.094358671421 Eh       
E(C)               :       -2.741421280163 Eh       
E(XC)              :      -97.835779951584 Eh       

---------------
SCF CONVERGENCE
---------------

  Last Energy change         ...    5.4588e-08  Tolerance :   1.0000e-06
  Last MAX-Density change    ...    1.3339e-04  Tolerance :   1.0000e-05
  Last RMS-Density change    ...    3.3264e-05  Tolerance :   1.0000e-06
  Last DIIS Error            ...    3.0151e-03  Tolerance :   1.0000e-05
  Last Orbital Gradient      ...    2.2017e-05  Tolerance :   5.0000e-05
  Last Orbital Rotation      ...    4.7020e-05  Tolerance :   5.0000e-05


----------------
ORBITAL ENERGIES
----------------

  NO   OCC          E(Eh)            E(eV) 
   0   2.0000     -55.432119     -1508.3846 
   1   2.0000     -55.427548     -1508.2603 
   2   2.0000     -55.405774     -1507.6678 
   3   2.0000     -55.396115     -1507.4049 
   4   2.0000     -55.393491     -1507.3335 
   5   2.0000      -4.000187      -108.8506 
   6   2.0000      -3.983550      -108.3979 
   7   2.0000      -3.961479      -107.7973 
   8   2.0000      -3.955348      -107.6305 
   9   2.0000      -3.954389      -107.6044 
  10   2.0000      -2.606269       -70.9202 
  11   2.0000      -2.605241       -70.8922 
  12   2.0000      -2.603619       -70.8481 
  13   2.0000      -2.592707       -70.5511 
  14   2.0000      -2.588899       -70.4475 
  15   2.0000      -2.584624       -70.3312 
  16   2.0000      -2.570676       -69.9517 
  17   2.0000      -2.566916       -69.8493 
  18   2.0000      -2.564836       -69.7927 
  19   2.0000      -2.563071       -69.7447 
  20   2.0000      -2.562989       -69.7425 
  21   2.0000      -2.560827       -69.6836 
  22   2.0000      -2.560183       -69.6661 
  23   2.0000      -2.556390       -69.5629 
  24   2.0000      -2.554944       -69.5236 
  25   2.0000      -0.521069       -14.1790 
  26   2.0000      -0.468608       -12.7515 
  27   2.0000      -0.450969       -12.2715 
  28   2.0000      -0.430928       -11.7261 
  29   2.0000      -0.378269       -10.2932 
  30   2.0000      -0.367446        -9.9987 
  31   2.0000      -0.346170        -9.4198 
  32   2.0000      -0.331532        -9.0214 
  33   2.0000      -0.314798        -8.5661 
  34   2.0000      -0.310854        -8.4588 
  35   2.0000      -0.290233        -7.8976 
  36   2.0000      -0.280965        -7.6455 
  37   2.0000      -0.265676        -7.2294 
  38   2.0000      -0.234141        -6.3713 
  39   2.0000      -0.205661        -5.5963 
  40   0.0000      -0.147573        -4.0157 
  41   0.0000      -0.106762        -2.9051 
  42   0.0000      -0.104499        -2.8436 
  43   0.0000      -0.087814        -2.3896 
  44   0.0000      -0.069275        -1.8851 
  45   0.0000      -0.060558        -1.6479 
  46   0.0000      -0.049168        -1.3379 
  47   0.0000      -0.032940        -0.8963 
  48   0.0000      -0.027247        -0.7414 
  49   0.0000      -0.008840        -0.2406 
  50   0.0000      -0.004900        -0.1333 
*Only the first 10 virtual orbitals were printed.
-------
TIMINGS
-------

Total SCF time: 0 days 0 hours 0 min 3 sec 

Total time                  ....       3.178 sec
Sum of individual times     ....       2.949 sec  ( 92.8%)

SCF preparation             ....       0.610 sec  ( 19.2%)
Fock matrix formation       ....       1.936 sec  ( 60.9%)
  Startup                   ....       0.010 sec  (  0.5% of F)
  Split-RI-J                ....       0.605 sec  ( 31.2% of F)
  XC integration            ....       1.297 sec  ( 67.0% of F)
    XC Preparation          ....       0.000 sec  (  0.0% of XC)
    Basis function eval.    ....       0.342 sec  ( 26.4% of XC)
    Density eval.           ....       0.178 sec  ( 13.7% of XC)
    XC-Functional eval.     ....       0.058 sec  (  4.5% of XC)
    XC-Potential eval.      ....       0.171 sec  ( 13.2% of XC)
Diagonalization             ....       0.000 sec  (  0.0%)
Density matrix formation    ....       0.052 sec  (  1.6%)
Total Energy calculation    ....       0.032 sec  (  1.0%)
Population analysis         ....       0.000 sec  (  0.0%)
Orbital Transformation      ....       0.032 sec  (  1.0%)
Orbital Orthonormalization  ....       0.000 sec  (  0.0%)
DIIS solution               ....       0.169 sec  (  5.3%)
SOSCF solution              ....       0.118 sec  (  3.7%)
Finished LeanSCF after   3.2 sec

Maximum memory used throughout the entire LEANSCF-calculation: 8.3 MB


           ************************************************************
           *        Program running with 24 parallel MPI-processes    *
           *              working on a common directory               *
           ************************************************************

------------------------------------------------------------------------------
                         ORCA PROPERTY INTEGRAL CALCULATIONS
------------------------------------------------------------------------------

GBWName                                   ... run.gbw
Number of atoms                           ...     20
Number of basis functions                 ...    120
Max core memory                           ...   4096 MB

Dipole integrals                          ... YES
Quadrupole integrals                      ...  NO
Linear momentum integrals                 ...  NO
Angular momentum integrals                ...  NO
Higher moments length integrals           ...  NO
Higher moments velocity integrals         ...  NO
Kinetic energy integrals                  ...  NO
GIAO right hand sides                     ...  NO
GIAO dipole derivative integrals          ...  NO
SOC integrals                             ...  NO
EPR diamagnetic integrals (GIAO)          ...  NO
EPR gauge integrals                       ...  NO
Field gradient integrals                  ...  NO (   0 nuclei)
Spin-dipole/Fermi contact integrals       ...  NO (   0 nuclei)
Contact density integrals                 ...  NO (   0 nuclei)
Nucleus-orbit integrals                   ...  NO (   0 nuclei)
Geometric perturbations                   ...  NO (  20 nuclei)

Choice of electric origin   ... Center of mass
Position of electric origin ... (  0.7539, -2.7900,  5.2834) 
Choice of magnetic origin   ... GIAO
Position of magnetic origin ... (  0.0000,  0.0000,  0.0000) 

Calculating integrals                     ... Electric Dipole (Length)     done (  0.0 sec)

Property integrals calculated in   0.0 sec

Maximum memory used throughout the entire PROPINT-calculation: 8.9 MB


-------------------------------------------------------------------------------
                          DFT DISPERSION CORRECTION                            
                                                                               
                              DFTD3 V3.1  Rev 1                                
                          USING Becke-Johnson damping                          
-------------------------------------------------------------------------------
The PBE functional is recognized
Active option DFTDOPT                   ...         4   

molecular C6(AA) [au] = 7962.724890 


            DFT-D V3
 parameters
 s6 scaling factor         :     1.0000 
 a1 scaling factor         :     0.4289 
 s8 scaling factor         :     0.7875 
 a2 scaling factor         :     4.4407 
 ad hoc parameters k1-k3   :    16.0000     1.3333    -4.0000 

 Edisp/kcal,au: -11.692888740276  -0.018633802319 
 E6   /kcal   :  -7.334232717 
 E8   /kcal   :  -4.358656023 
 % E8         :  37.276126711 

-------------------------   ----------------
Dispersion correction           -0.018633802
-------------------------   ----------------


-------------------------   --------------------
FINAL SINGLE POINT ENERGY     -1219.701568110675
-------------------------   --------------------



           ************************************************************
           *        Program running with 24 parallel MPI-processes    *
           *              working on a common directory               *
           ************************************************************
------------------------------------------------------------------------------
                         ORCA SCF GRADIENT CALCULATION
------------------------------------------------------------------------------

Nuc. rep. gradient        (SHARK) ... done (  0.0 sec)
HCore & Overlap gradient  (SHARK) ... done (  0.1 sec)
Split-RIJ-J gradient      (SHARK) ... done (  0.4 sec)
XC gradient                       ... done (  0.7 sec)
Dispersion correction             ... done (  0.1 sec)

-------------------
DISPERSION GRADIENT
-------------------

   1   Al  :   -0.000165540    0.000561763    0.000146297
   2   Al  :   -0.000039079    0.000208782   -0.000551703
   3   H   :   -0.000040044   -0.000075666   -0.000177764
   4   H   :   -0.000052117    0.000036209   -0.000126746
   5   H   :   -0.000083476    0.000118512   -0.000096283
   6   H   :   -0.000086971    0.000113951    0.000042359
   7   H   :   -0.000092798    0.000112160    0.000129813
   8   H   :    0.000125631    0.000072332   -0.000164809
   9   Al  :    0.000069737   -0.000438494   -0.000313526
  10   H   :   -0.000054668   -0.000128300   -0.000009975
  11   H   :   -0.000073324   -0.000157880   -0.000107745
  12   H   :    0.000043003    0.000174375    0.000054199
  13   Al  :    0.000076165   -0.000000602    0.000353869
  14   H   :   -0.000027526    0.000012263    0.000131061
  15   H   :    0.000166922    0.000033966    0.000086115
  16   H   :    0.000097510   -0.000137226   -0.000096275
  17   Al  :    0.000547013   -0.000405044    0.000910987
  18   H   :   -0.000347754    0.000102576   -0.000391498
  19   H   :    0.000037845   -0.000121823    0.000048316
  20   H   :   -0.000100530   -0.000081855    0.000133306

Difference to translation invariance:
           :   -0.0000000000    0.0000000000   -0.0000000000

Difference to rotation invariance:
           :    0.0000000000   -0.0000000000   -0.0000000000

Norm of the Dispersion gradient    ...    0.0017770979
RMS gradient                       ...    0.0002294223
MAX gradient                       ...    0.0009109865

------------------
CARTESIAN GRADIENT
------------------

   1   Al  :    0.017283585   -0.010884525    0.010955535
   2   Al  :    0.007525590    0.012806612    0.011127668
   3   H   :    0.004553282    0.000721267    0.001124117
   4   H   :   -0.002126870    0.003718543    0.007867676
   5   H   :   -0.010787440   -0.014554638   -0.038126084
   6   H   :    0.004419909    0.004379306    0.001162127
   7   H   :    0.003221525    0.001811873   -0.007975879
   8   H   :   -0.012202246   -0.008345021   -0.002559897
   9   Al  :    0.001777449    0.025961877    0.035460213
  10   H   :    0.008911283   -0.032446657   -0.055154689
  11   H   :    0.007337656    0.012775418    0.011445951
  12   H   :   -0.009639118    0.005760875    0.007659498
  13   Al  :    0.195018197    0.047125192   -0.065337249
  14   H   :    0.008962221   -0.028839452    0.019070424
  15   H   :   -0.201169476   -0.042242064    0.084297593
  16   H   :   -0.010711810   -0.009830880   -0.006456195
  17   Al  :   -0.012738020    0.059868550   -0.094738481
  18   H   :    0.019979245   -0.016966315    0.036029980
  19   H   :    0.001546369   -0.001971341    0.010154831
  20   H   :   -0.021161332   -0.008848620    0.033992859

Difference to translation invariance:
           :    0.0000000000   -0.0000000001    0.0000000000

Difference to rotation invariance:
           :    0.0002057570    0.0006841300   -0.0001014245

Norm of the Cartesian gradient     ...    0.3487960681
RMS gradient                       ...    0.0450293788
MAX gradient                       ...    0.2011694760

-------
TIMINGS
-------

Total SCF gradient time     ....        1.204 sec

Densities                   ....       0.001 sec  (  0.1%)
One electron gradient       ....       0.068 sec  (  5.7%)
RI-J Coulomb gradient       ....       0.352 sec  ( 29.2%)
XC gradient                 ....       0.653 sec  ( 54.2%)

Maximum memory used throughout the entire SCFGRAD-calculation: 28.5 MB
------------------------------------------------------------------------------
                         ORCA GEOMETRY RELAXATION STEP
------------------------------------------------------------------------------

Reading the OPT-File                    .... done
Getting information on internals        .... done
Copying old internal coords+grads       .... done
Making the new internal coordinates     .... (2022 redundants) done
Validating the new internal coordinates .... (2022 redundants) done
Calculating the B-matrix                .... done
Calculating the G,G- and P matrices     .... done
Transforming gradient to internals      .... done
Projecting the internal gradient        .... done
Number of atoms                         ....  20
Number of internal coordinates          .... 209
Current Energy                          .... -1219.701568111 Eh
Current gradient norm                   ....     0.348796068 Eh/bohr
Maximum allowed component of the step   ....  0.300
Current trust radius                    ....  0.300
Evaluating the initial hessian          ....  (Almloef) done
Projecting the Hessian                  .... done
Forming the augmented Hessian           .... done
Diagonalizing the augmented Hessian     .... done
Last element of RFO vector              ....  0.882930652
Lowest eigenvalues of augmented Hessian:
 -0.079524867  0.012754970  0.014704261  0.018462089  0.019111299
Length of the computed step             ....  0.531755717
Warning: the length of the step is outside the trust region - taking restricted step instead
The input lambda is                     ....     0.011751
   iter:   5  x=   -0.052933  g=   22.767842 f(x)=     0.697906
   iter:  10  x=   -0.234039  g=    0.449571 f(x)=     0.001001
The output lambda is                    ....    -0.234061 (13 iterations)
The final length of the internal step   ....  0.300000000
Converting the step to Cartesian space:
 Initial RMS(Int)=    0.0207514339
Transforming coordinates:
 Iter   0:  RMS(Cart)=    0.0433719240 RMS(Int)=    0.0207146932
done
Storing new coordinates                 .... done

                                .--------------------.
          ----------------------|Geometry convergence|-------------------------
          Item                value                   Tolerance       Converged
          ---------------------------------------------------------------------
          RMS gradient        0.0170497140            0.0010000000      NO
          MAX gradient        0.2216347263            0.0050000000      NO
          RMS step            0.0207514339            0.0200000000      NO
          MAX step            0.1229092461            0.0300000000      NO
          -------------------------------------------------------------------------
          ........................................................
          Max(Bonds)      0.0650      Max(Angles)    3.35
          Max(Dihed)        3.01      Max(Improp)    0.00
          ---------------------------------------------------------------------

The optimization has not yet converged - more geometry cycles are needed


    ---------------------------------------------------------------------------
                         Redundant Internal Coordinates
                            (Angstroem and degrees)

        Definition                    Value    dE/dq     Step     New-Value
    ----------------------------------------------------------------------------
     1. B(Al  1,Al  0)                3.1887  0.018050 -0.0323    3.1564   
     2. B(H   2,Al  1)                1.7014 -0.001156  0.0008    1.7021   
     3. B(H   3,Al  1)                1.5963 -0.003644  0.0031    1.5993   
     4. B(H   4,Al  1)                1.6275 -0.021418  0.0194    1.6469   
     5. B(H   5,Al  0)                1.5953 -0.001339  0.0011    1.5964   
     6. B(H   6,Al  0)                1.7025 -0.003197  0.0039    1.7064   
     7. B(H   7,Al  1)                1.5576 -0.011760  0.0091    1.5666   
     8. B(Al  8,H   2)                1.7011  0.000715 -0.0007    1.7004   
     9. B(Al  8,Al  1)                3.2024  0.000582 -0.0008    3.2016   
    10. B(H   9,Al  8)                1.5224 -0.034297  0.0285    1.5509   
    11. B(H  10,Al  8)                1.5969 -0.010632  0.0090    1.6059   
    12. B(H  11,Al  0)                1.5979 -0.001161  0.0010    1.5989   
    13. B(Al 12,Al  8)                3.0079 -0.008186  0.0028    3.0108   
    14. B(Al 12,H   6)                1.7019 -0.000749  0.0011    1.7030   
    15. B(Al 12,Al  0)                3.1300 -0.002681  0.0039    3.1339   
    16. B(Al 12,H   9)                1.8822  0.019800 -0.0230    1.8592   
    17. B(H  13,Al 12)                1.9367  0.015675 -0.0234    1.9133   
    18. B(H  14,Al 12)                1.2193 -0.221635  0.0650    1.2844   
    19. B(H  15,Al  8)                1.5964  0.000293 -0.0002    1.5962   
    20. B(Al 16,H  13)                1.6165 -0.016840  0.0161    1.6326   
    21. B(Al 16,Al 12)                2.5955 -0.015694  0.0134    2.6089   
    22. B(H  17,Al 16)                1.9327  0.037195 -0.0572    1.8756   
    23. B(H  18,Al 16)                1.5655 -0.009078  0.0071    1.5726   
    24. B(H  19,H  17)                2.8828  0.007401 -0.0166    2.8661   
    25. B(H  19,H  13)                2.4224  0.005706 -0.0174    2.4050   
    26. B(H  19,Al 16)                2.3240  0.027348 -0.0505    2.2735   
    27. A(H   5,Al  0,H  11)          109.68 -0.007869    1.13    110.81   
    28. A(Al  1,Al  0,H   6)           89.14 -0.000601    0.17     89.31   
    29. A(H   6,Al  0,H  11)          109.62  0.000956   -0.09    109.53   
    30. A(Al  1,Al  0,H   5)          117.47 -0.003662    0.43    117.90   
    31. A(Al  1,Al  0,Al 12)           88.38  0.001348   -0.12     88.26   
    32. A(H   5,Al  0,Al 12)          129.40  0.001261   -0.05    129.35   
    33. A(Al  1,Al  0,H  11)          119.22  0.011066   -1.69    117.53   
    34. A(H   5,Al  0,H   6)          109.27  0.001688   -0.11    109.16   
    35. A(H  11,Al  0,Al 12)           89.89  0.002541   -0.32     89.57   
    36. A(H   6,Al  0,Al 12)           23.16 -0.000212    0.01     23.17   
    37. A(H   3,Al  1,H   4)           82.51 -0.019984    2.51     85.02   
    38. A(H   2,Al  1,H   3)          109.11  0.002644   -0.30    108.82   
    39. A(Al  0,Al  1,Al  8)           87.93 -0.005365    0.69     88.62   
    40. A(H   3,Al  1,H   7)          130.45  0.002092   -0.15    130.30   
    41. A(H   4,Al  1,H   7)          134.22  0.018292   -2.36    131.86   
    42. A(Al  0,Al  1,H   4)           36.15  0.025123   -3.35     32.80   
    43. A(H   7,Al  1,Al  8)           79.48 -0.005660    0.48     79.96   
    44. A(H   2,Al  1,Al  8)           19.75 -0.000354    0.04     19.78   
    45. A(H   4,Al  1,Al  8)          107.41  0.010114   -1.11    106.29   
    46. A(Al  0,Al  1,H   3)          118.41  0.005185   -0.81    117.60   
    47. A(H   2,Al  1,H   7)           98.45 -0.006189    0.53     98.98   
    48. A(Al  0,Al  1,H   7)          101.75 -0.003938    0.68    102.43   
    49. A(H   3,Al  1,Al  8)          126.60  0.002569   -0.28    126.32   
    50. A(H   2,Al  1,H   4)           97.80  0.005209   -0.43     97.37   
    51. A(Al  0,Al  1,H   2)           89.40 -0.003468    0.42     89.83   
    52. A(Al  1,H   2,Al  8)          140.50  0.000918   -0.09    140.41   
    53. A(Al  0,H   6,Al 12)          133.68  0.000749   -0.07    133.61   
    54. A(Al 12,Al  8,H  15)          137.47  0.003347   -0.74    136.74   
    55. A(H  10,Al  8,H  15)          109.64  0.004986   -0.28    109.36   
    56. A(H   9,Al  8,H  15)          159.58  0.003427   -0.52    159.05   
    57. A(Al  1,Al  8,H  15)          100.16 -0.003016    0.15    100.31   
    58. A(H   9,Al  8,H  10)           66.17 -0.012294    1.63     67.80   
    59. A(H   2,Al  8,H  10)          109.25  0.001347   -0.24    109.02   
    60. A(Al  1,Al  8,H  10)          128.94  0.000504   -0.15    128.79   
    61. A(H   2,Al  8,H   9)           90.28  0.003506   -0.32     89.97   
    62. A(Al  1,Al  8,H   9)           97.20  0.004057   -0.43     96.78   
    63. A(Al  1,Al  8,H   2)           19.75 -0.000564    0.05     19.80   
    64. A(H   2,Al  8,H  15)          109.57 -0.005098    0.50    110.07   
    65. A(H   2,Al  8,Al 12)           93.95  0.005619   -0.70     93.26   
    66. A(Al  1,Al  8,Al 12)           90.29  0.005280   -0.68     89.61   
    67. A(H  10,Al  8,Al 12)           94.26 -0.010245    1.44     95.70   
    68. A(H   9,Al  8,Al 12)           31.34  0.003409   -0.44     30.90   
    69. A(Al  8,H   9,Al 12)          123.79  0.002103   -0.05    123.74   
    70. A(H   9,Al 12,Al 16)           88.91  0.001169   -0.02     88.90   
    71. A(Al  8,Al 12,Al 16)           95.66 -0.000804    0.21     95.87   
    72. A(H   6,Al 12,Al 16)          147.83  0.001869   -0.22    147.61   
    73. A(Al  0,Al 12,Al 16)          168.09  0.001646   -0.22    167.87   
    74. A(H  13,Al 12,H  14)          130.03  0.001737   -0.16    129.87   
    75. A(H   9,Al 12,H  14)           95.09 -0.010359    1.26     96.35   
    76. A(Al  8,Al 12,H  14)           70.23 -0.004870    0.78     71.01   
    77. A(H   6,Al 12,H  14)          107.87 -0.002623    0.24    108.11   
    78. A(Al  0,Al 12,H  14)           87.01 -0.000920    0.02     87.03   
    79. A(H   9,Al 12,H  13)          110.54  0.003168   -0.29    110.25   
    80. A(Al  8,Al 12,H  13)          127.82 -0.001786    0.23    128.05   
    81. A(H   6,Al 12,H  13)          116.92  0.003902   -0.51    116.41   
    82. A(Al  0,Al 12,H  13)          130.05  0.003199   -0.41    129.64   
    83. A(Al  8,Al 12,H   9)           24.87 -0.005512    0.49     25.36   
    84. A(H   6,Al 12,H   9)           83.26  0.000432   -0.06     83.20   
    85. A(Al  0,Al 12,H   9)           95.01 -0.001080    0.06     95.07   
    86. A(H   6,Al 12,Al  8)           90.20 -0.001361    0.07     90.27   
    87. A(Al  0,Al 12,Al  8)           92.56 -0.000658   -0.00     92.55   
    88. A(H  13,Al 12,Al 16)           38.44 -0.001488    0.17     38.61   
    89. A(Al  0,Al 12,H   6)           23.16 -0.000537    0.05     23.22   
    90. A(H  14,Al 12,Al 16)          103.87  0.000021    0.09    103.96   
    91. A(Al 16,H  13,H  19)           66.84  0.009486   -1.54     65.30   
    92. A(Al 12,H  13,H  19)          149.35  0.004214   -0.95    148.40   
    93. A(Al 12,H  13,Al 16)           93.41 -0.007355    1.00     94.41   
    94. A(H  17,Al 16,H  19)           84.72 -0.011985    2.03     86.76   
    95. A(H  13,Al 16,H  19)           73.40 -0.003096    0.58     73.99   
    96. A(Al 12,Al 16,H  19)          117.41  0.006591   -0.81    116.60   
    97. A(H  17,Al 16,H  18)          124.98  0.003571   -0.52    124.45   
    98. A(H  13,Al 16,H  18)          115.72  0.005288   -0.85    114.87   
    99. A(Al 12,Al 16,H  18)           72.62 -0.002179    0.06     72.67   
   100. A(H  18,Al 16,H  19)          130.07  0.003263   -0.53    129.53   
   101. A(H  13,Al 16,H  17)          114.61 -0.004194    0.50    115.11   
   102. A(Al 12,Al 16,H  17)          134.19  0.005267   -0.97    133.22   
   103. A(Al 12,Al 16,H  13)           48.15  0.008843   -1.17     46.98   
   104. A(Al 16,H  17,H  19)           53.39  0.005064   -0.98     52.41   
   105. A(H  13,H  19,H  17)           68.02  0.000927   -0.26     67.76   
   106. A(Al 16,H  19,H  17)           41.88  0.006921   -1.05     40.83   
   107. A(H  13,H  19,Al 16)           39.76 -0.006390    0.96     40.72   
   108. D(H   2,Al  1,Al  0,H   6)      3.21 -0.002888    0.51      3.72   
   109. D(H   3,Al  1,Al  0,H   5)      3.36 -0.001700    0.20      3.56   
   110. D(H   2,Al  1,Al  0,H   5)   -108.15 -0.003799    0.46   -107.68   
   111. D(H   3,Al  1,Al  0,H  11)   -133.16  0.002301   -0.11   -133.28   
   112. D(H   3,Al  1,Al  0,Al 12)    137.87 -0.000942    0.25    138.13   
   113. D(H   3,Al  1,Al  0,H   6)    114.72 -0.000790    0.25    114.97   
   114. D(H   2,Al  1,Al  0,H  11)    115.33  0.000203    0.15    115.48   
   115. D(H   4,Al  1,Al  0,H   5)     -4.00  0.001193    0.31     -3.69   
   116. D(H   2,Al  1,Al  0,Al 12)     26.36 -0.003040    0.52     26.88   
   117. D(Al  8,H   2,Al  1,Al  0)    -85.53  0.006305   -0.86    -86.39   
   118. D(Al  8,H   2,Al  1,H   7)     16.27  0.001678   -0.11     16.16   
   119. D(Al  8,H   2,Al  1,H   4)   -120.79 -0.017627    2.39   -118.40   
   120. D(Al  8,H   2,Al  1,H   3)    154.48  0.001601   -0.11    154.37   
   121. D(Al 12,H   6,Al  0,Al  1)     87.88  0.004820   -0.69     87.19   
   122. D(Al 12,H   6,Al  0,H  11)    -32.98 -0.007069    1.08    -31.90   
   123. D(Al 12,H   6,Al  0,H   5)   -153.20  0.000950   -0.18   -153.39   
   124. D(H   9,Al  8,Al  1,H   2)    -70.29  0.001718   -0.34    -70.63   
   125. D(H  10,Al  8,H   2,Al  1)    175.70 -0.009133    1.21    176.91   
   126. D(H   9,Al  8,Al  1,H   4)     -7.18 -0.014155    1.90     -5.28   
   127. D(H  10,Al  8,Al  1,Al  0)     88.79 -0.006311    0.80     89.59   
   128. D(H   9,Al  8,Al  1,H   7)    126.08  0.003985   -0.50    125.58   
   129. D(H   9,Al  8,H   2,Al  1)    110.93  0.002904   -0.46    110.47   
   130. D(H   2,Al  8,Al  1,H   4)     63.11 -0.015873    2.24     65.35   
[...]
     27      -0.004897  -0.000733  -0.013045   0.005303   0.004250   0.017693
     28      -0.009250   0.010109  -0.032149   0.013226   0.013565   0.024451
     29      -0.014181   0.018794  -0.053383   0.020381   0.026339   0.044299
     30      -0.014697   0.366881  -0.132524  -0.093199  -0.072684  -0.041618
     31      -0.012068   0.289460  -0.105693  -0.072805  -0.058658  -0.044376
     32      -0.001606   0.073976  -0.025791  -0.018534  -0.012304  -0.005051
     33      -0.742212  -0.038096  -0.006267  -0.076510  -0.022935   0.177997
     34      -0.473406  -0.023554  -0.005100  -0.045711  -0.011962   0.113630
     35      -0.105690  -0.004660   0.000812  -0.008892   0.000034   0.033505
     36      -0.002455   0.000169  -0.017651   0.014675   0.014149  -0.007700
     37      -0.002376   0.000763  -0.009951   0.007936   0.008453  -0.001979
     38       0.001788  -0.000520   0.008966  -0.006944  -0.006926   0.002040
     39       0.001208   0.001591   0.007695  -0.009073  -0.004107  -0.000173
     40      -0.003863  -0.000854  -0.015248   0.011736   0.008893   0.004272
     41       0.003375  -0.003436   0.008836  -0.006900   0.000440  -0.011714
     42       0.094539  -0.023701   0.531971  -0.423854  -0.412393   0.155429
     43       0.045590  -0.015538   0.258979  -0.206232  -0.201722   0.075602
     44      -0.043134   0.011258  -0.227667   0.186395   0.178612  -0.069305
     45       0.022734   0.760300  -0.200919  -0.192196  -0.114268   0.138715
     46      -0.004947  -0.171018   0.043972   0.041267   0.024057  -0.030387
     47      -0.000989  -0.045583   0.011701   0.011634   0.007957  -0.006727
     48       0.000223   0.000645   0.006823  -0.024765   0.029821  -0.007058
     49       0.000624  -0.000096   0.004387  -0.010854   0.011856  -0.002935
     50      -0.001122   0.001381  -0.000591  -0.008746   0.012473  -0.002772
     51       0.024353  -0.036495  -0.048320   0.393598  -0.496199   0.115198
     52       0.005608  -0.008963  -0.012608   0.093355  -0.115792   0.026539
     53       0.019157  -0.029072  -0.038245   0.310231  -0.389874   0.089911
     54      -0.001262   0.002403  -0.003094  -0.003021   0.006147  -0.001565
     55      -0.002565  -0.000516  -0.012884   0.009061   0.008142  -0.000259
     56       0.006193  -0.004466   0.029131  -0.018787  -0.011526   0.000730
     57      -0.029759   0.017175  -0.136123   0.279303  -0.311791   0.076079
     58      -0.020054   0.010940  -0.094500   0.191978  -0.211037   0.050667
     59       0.005703  -0.002777   0.028414  -0.058383   0.063702  -0.015253


-----------
IR SPECTRUM
-----------

 Mode   freq       eps      Int      T**2         TX        TY        TZ
       cm**-1   L/(mol*cm) km/mol    a.u.
----------------------------------------------------------------------------
  7:     32.78   0.000034    0.17  0.000327  (-0.010071 -0.003486 -0.014625)
  8:     53.52   0.000044    0.22  0.000258  (-0.003763 -0.009627  0.012297)
  9:     77.99   0.000603    3.05  0.002413  ( 0.044012  0.004226  0.021411)
 10:     99.47   0.000069    0.35  0.000216  (-0.008044  0.010086 -0.007036)
 11:    108.94   0.000064    0.32  0.000183  ( 0.013452  0.000678  0.001368)
 12:    121.71   0.000068    0.34  0.000174  (-0.010763  0.006298  0.004317)
 13:    134.33   0.000126    0.63  0.000292  (-0.011530 -0.005669 -0.011247)
 14:    165.18   0.000167    0.84  0.000315  (-0.015647  0.001739 -0.008190)
 15:    226.81   0.000730    3.69  0.001005  ( 0.003672  0.023265  0.021218)
 16:    275.72   0.003563   18.01  0.004032  ( 0.041451 -0.018019  0.044604)
 17:    326.33   0.001079    5.46  0.001032  ( 0.027769 -0.004195  0.015606)
 18:    344.07   0.001802    9.11  0.001634  ( 0.022797  0.016249  0.029161)
 19:    355.51   0.002792   14.11  0.002451  (-0.002347 -0.032719  0.037078)
 20:    365.72   0.005778   29.20  0.004930  ( 0.001748  0.044314 -0.054437)
 21:    385.79   0.001417    7.16  0.001146  ( 0.028088  0.017733 -0.006515)
 22:    406.82   0.000319    1.61  0.000245  ( 0.013041 -0.008628 -0.000093)
 23:    436.14   0.000146    0.74  0.000105  ( 0.005021 -0.001324 -0.008814)
 24:    469.89   0.010863   54.89  0.007214  (-0.011296  0.025336 -0.080278)
 25:    489.32   0.018821   95.11  0.012003  ( 0.016011 -0.004733 -0.108280)
 26:    510.69   0.001836    9.28  0.001122  ( 0.014241  0.005195  0.029872)
 27:    547.95   0.005057   25.56  0.002880  (-0.005877 -0.052715  0.008158)
 28:    583.59   0.039271  198.46  0.020999  (-0.051308  0.125147 -0.052009)
 29:    658.97   0.171111  864.72  0.081032  ( 0.050021 -0.224847  0.167255)
 30:    668.53   0.044098  222.85  0.020585  (-0.052578 -0.105569  0.081703)
 31:    672.80   0.181004  914.72  0.083955  ( 0.046435 -0.186601 -0.216746)
 32:    679.67   0.005835   29.49  0.002679  ( 0.003138 -0.030098 -0.041991)
 33:    694.48   0.015754   79.62  0.007079  ( 0.012612  0.025889 -0.079056)
 34:    701.10   0.006289   31.78  0.002799  ( 0.018694  0.009950 -0.048487)
 35:    720.75   0.087943  444.43  0.038077  (-0.036672  0.073811 -0.176872)
 36:    726.48   0.034528  174.49  0.014832  (-0.002300 -0.096031 -0.074862)
 37:    804.89   0.037804  191.05  0.014657  (-0.104785 -0.051720 -0.031659)
 38:    839.93   0.008890   44.93  0.003303  ( 0.006057  0.049669 -0.028273)
 39:    868.33   0.013244   66.93  0.004760  ( 0.051269 -0.031069  0.034143)
 40:    930.53   0.020227  102.22  0.006783  (-0.062073 -0.000679 -0.054126)
 41:    942.59   0.020080  101.47  0.006648  (-0.060344 -0.045679  0.030327)
 42:   1046.93   0.028892  146.01  0.008612  (-0.089661  0.017975  0.015803)
 43:   1106.48   0.065373  330.37  0.018437  ( 0.052444 -0.119194  0.038468)
 44:   1387.32   0.069848  352.98  0.015711  ( 0.042621 -0.115583  0.023142)
 45:   1448.75   0.139918  707.09  0.030139  (-0.012420  0.092937 -0.146106)
 46:   1611.63   0.080825  408.45  0.015650  (-0.001099  0.031943 -0.120949)
 47:   1697.37   0.054426  275.05  0.010006  ( 0.002171 -0.080770 -0.058973)
 48:   1843.82   0.157409  795.48  0.026641  ( 0.029032  0.101041  0.124856)
 49:   1847.65   0.275806  1393.81  0.046583  (-0.049860  0.201393 -0.059479)
 50:   1879.70   0.088373  446.60  0.014672  ( 0.049246 -0.006302 -0.110484)
 51:   1909.85   0.003792   19.17  0.000620  ( 0.005957  0.013022  0.020363)
 52:   1912.58   0.009010   45.53  0.001470  ( 0.001382 -0.026508 -0.027668)
 53:   1914.77   0.012213   61.72  0.001990  (-0.009356 -0.032336  0.029279)
 54:   1923.33   0.018895   95.49  0.003066  ( 0.054694  0.008039 -0.003107)
 55:   1927.20   0.009487   47.94  0.001536  (-0.032580 -0.010291  0.019206)
 56:   1931.20   0.044646  225.62  0.007214  ( 0.048031 -0.030163  0.063226)
 57:   1937.24   0.003525   17.81  0.000568  ( 0.023275  0.003848  0.003353)
 58:   1941.12   0.059152  298.93  0.009510  ( 0.078440  0.042408  0.039476)
 59:   1943.87   0.049368  249.49  0.007925  (-0.060982 -0.004303  0.064716)

* The epsilon (eps) is given for a Dirac delta lineshape.
** The dipole moment derivative (T) already includes vibrational overlap.

The first frequency considered to be a vibration is 7
The total number of vibrations considered is 53


--------------------------
THERMOCHEMISTRY AT 298.15K
--------------------------

Temperature         ...   298.15 K
Pressure            ...     1.00 atm
Total Mass          ...   150.03 AMU
Quasi RRHO          ...     True
Cut-Off Frequency   ...     1.00 cm^-1

Throughout the following assumptions are being made:
  (1) The electronic state is orbitally nondegenerate
  (2) There are no thermally accessible electronically excited states
  (3) Hindered rotations indicated by low frequency modes are not
      treated as such but are treated as vibrations and this may
      cause some error
  (4) All equations used are the standard statistical mechanics
      equations for an ideal gas
  (5) All vibrations are strictly harmonic

freq.      32.78  E(vib)   ...       0.55 
freq.      53.52  E(vib)   ...       0.52 
freq.      77.99  E(vib)   ...       0.49 
freq.      99.47  E(vib)   ...       0.46 
freq.     108.94  E(vib)   ...       0.45 
freq.     121.71  E(vib)   ...       0.44 
freq.     134.33  E(vib)   ...       0.42 
freq.     165.18  E(vib)   ...       0.39 
freq.     226.81  E(vib)   ...       0.33 
freq.     275.72  E(vib)   ...       0.28 
freq.     326.33  E(vib)   ...       0.24 
freq.     344.07  E(vib)   ...       0.23 
freq.     355.51  E(vib)   ...       0.22 
freq.     365.72  E(vib)   ...       0.22 
freq.     385.79  E(vib)   ...       0.20 
freq.     406.82  E(vib)   ...       0.19 
freq.     436.14  E(vib)   ...       0.17 
freq.     469.89  E(vib)   ...       0.16 
freq.     489.32  E(vib)   ...       0.15 
freq.     510.69  E(vib)   ...       0.14 
freq.     547.95  E(vib)   ...       0.12 
freq.     583.59  E(vib)   ...       0.11 
freq.     658.97  E(vib)   ...       0.08 
freq.     668.53  E(vib)   ...       0.08 
freq.     672.80  E(vib)   ...       0.08 
freq.     679.67  E(vib)   ...       0.08 
freq.     694.48  E(vib)   ...       0.07 
freq.     701.10  E(vib)   ...       0.07 
freq.     720.75  E(vib)   ...       0.07 
freq.     726.48  E(vib)   ...       0.06 
freq.     804.89  E(vib)   ...       0.05 
freq.     839.93  E(vib)   ...       0.04 
freq.     868.33  E(vib)   ...       0.04 
freq.     930.53  E(vib)   ...       0.03 
freq.     942.59  E(vib)   ...       0.03 
freq.    1046.93  E(vib)   ...       0.02 
freq.    1106.48  E(vib)   ...       0.02 
freq.    1387.32  E(vib)   ...       0.00 
freq.    1448.75  E(vib)   ...       0.00 
freq.    1611.63  E(vib)   ...       0.00 
freq.    1697.37  E(vib)   ...       0.00 
freq.    1843.82  E(vib)   ...       0.00 
freq.    1847.65  E(vib)   ...       0.00 
freq.    1879.70  E(vib)   ...       0.00 
freq.    1909.85  E(vib)   ...       0.00 
freq.    1912.58  E(vib)   ...       0.00 
freq.    1914.77  E(vib)   ...       0.00 
freq.    1923.33  E(vib)   ...       0.00 
freq.    1927.20  E(vib)   ...       0.00 
freq.    1931.20  E(vib)   ...       0.00 
freq.    1937.24  E(vib)   ...       0.00 
freq.    1941.12  E(vib)   ...       0.00 
freq.    1943.87  E(vib)   ...       0.00 

------------
INNER ENERGY
------------

The inner energy is: U= E(el) + E(ZPE) + E(vib) + E(rot) + E(trans)
    E(el)   - is the total energy from the electronic structure calculation
              = E(kin-el) + E(nuc-el) + E(el-el) + E(nuc-nuc)
    E(ZPE)  - the the zero temperature vibrational energy from the frequency calculation
    E(vib)  - the the finite temperature correction to E(ZPE) due to population
              of excited vibrational states
    E(rot)  - is the rotational thermal energy
    E(trans)- is the translational thermal energy

Summary of contributions to the inner energy U:
Electronic energy                ...  -1219.98238018 Eh
Zero point energy                ...      0.10852769 Eh      68.10 kcal/mol
Thermal vibrational correction   ...      0.01161738 Eh       7.29 kcal/mol
Thermal rotational correction    ...      0.00141627 Eh       0.89 kcal/mol
Thermal translational correction ...      0.00141627 Eh       0.89 kcal/mol
-----------------------------------------------------------------------
Total thermal energy                  -1219.85940257 Eh


Summary of corrections to the electronic energy:
(perhaps to be used in another calculation)
Total thermal correction                  0.01444992 Eh       9.07 kcal/mol
Non-thermal (ZPE) correction              0.10852769 Eh      68.10 kcal/mol
-----------------------------------------------------------------------
Total correction                          0.12297761 Eh      77.17 kcal/mol


--------
ENTHALPY
--------

The enthalpy is H = U + kB*T
                kB is Boltzmann's constant
Total thermal energy              ...  -1219.85940257 Eh 
Thermal Enthalpy correction       ...      0.00094421 Eh       0.59 kcal/mol
-----------------------------------------------------------------------
Total Enthalpy                    ...  -1219.85845836 Eh


Note: Only C1 symmetry has been detected, increase convergence thresholds 
      if your molecule has a higher symmetry. Symmetry factor of 1.0 is   
      used for the rotational entropy correction. 
 

Note: Rotational entropy computed according to Herzberg 
Infrared and Raman Spectra, Chapter V,1, Van Nostrand Reinhold, 1945 
Point Group:  C1, Symmetry Number:   1  
Rotational constants in cm-1:     0.043977     0.020626     0.015062 

Vibrational entropy computed according to the QRRHO of S. Grimme
Chem.Eur.J. 2012 18 9955 using a reference frequency of 100.0 cm-1


-------
ENTROPY
-------

The entropy contributions are T*S = T*(S(el)+S(vib)+S(rot)+S(trans))
     S(el)   - electronic entropy
     S(vib)  - vibrational entropy
     S(rot)  - rotational entropy
     S(trans)- translational entropy
The entropies will be listed as multiplied by the temperature to get
units of energy

Electronic entropy                ...      0.00000000 Eh      0.00 kcal/mol
Vibrational entropy               ...      0.02041227 Eh     12.81 kcal/mol
Rotational entropy                ...      0.01479861 Eh      9.29 kcal/mol
Translational entropy             ...      0.01944577 Eh     12.20 kcal/mol
-----------------------------------------------------------------------
Final entropy term                ...      0.05465665 Eh     34.30 kcal/mol

In case the symmetry of your molecule has not been determined correctly
or in case you have a reason to use a different symmetry number we print 
out the resulting rotational entropy values for sn=1,12:

 non-linear molecules -----------------------------------
|  sn= 1 | S(rot)=       0.01479861 Eh      9.29 kcal/mol|
|  sn= 2 | S(rot)=       0.01414416 Eh      8.88 kcal/mol|
|  sn= 3 | S(rot)=       0.01376132 Eh      8.64 kcal/mol|
|  sn= 4 | S(rot)=       0.01348970 Eh      8.46 kcal/mol|
|  sn= 5 | S(rot)=       0.01327901 Eh      8.33 kcal/mol|
|  sn= 6 | S(rot)=       0.01310687 Eh      8.22 kcal/mol|
|  sn= 7 | S(rot)=       0.01296132 Eh      8.13 kcal/mol|
|  sn= 8 | S(rot)=       0.01283524 Eh      8.05 kcal/mol|
|  sn= 9 | S(rot)=       0.01272403 Eh      7.98 kcal/mol|
|  sn=10 | S(rot)=       0.01262455 Eh      7.92 kcal/mol|
|  sn=11 | S(rot)=       0.01253456 Eh      7.87 kcal/mol|
|  sn=12 | S(rot)=       0.01245241 Eh      7.81 kcal/mol|
 linear molecules ---------------------------------------
|  Dinfh | S(rot)=       0.00928718 Eh      5.83 kcal/mol|
|  Cinfv | S(rot)=       0.00994163 Eh      6.24 kcal/mol|
 --------------------------------------------------------


-------------------
GIBBS FREE ENERGY
-------------------

The Gibbs free energy is G = H - T*S

Total enthalpy                    ...  -1219.85845836 Eh 
Total entropy correction          ...     -0.05465665 Eh    -34.30 kcal/mol
-----------------------------------------------------------------------
Final Gibbs free energy         ...  -1219.91311502 Eh

For completeness - the Gibbs free energy minus the electronic energy
G-E(el)                           ...      0.06926517 Eh     43.46 kcal/mol


Maximum memory used throughout the entire PROP-calculation: 29.0 MB

--------------------------------
SUGGESTED CITATIONS FOR THIS RUN
--------------------------------

Below you find a list of papers that are relevant to this ORCA run
We neither can nor want to force you to cite these papers, but we appreciate if you do
You receive ORCA, which is the product of decades of hard work by many enthusiastic individuals, for free
The only thing we kindly ask in return is that you cite our papers,
We deeply appreciate it, if you show your appreciation for ORCA by not just citing the generic ORCA reference.

Please note that relegating all ORCA citations to the supporting information does *not* help us.
SI sections are not indexed - citations you put there will not count into any citation statistics
But we need these citations in order to attract the funding resources that allow us to do what we are doing

Therefore, if you are a happy ORCA user, please consider citing a few of the papers listed below in the main body of your paper

In addition to the list printed below, the program has created the file run.bibtex that contains the list in bibtex format
You can import this file easily into all common literature databanks and citation aid programs


List of essential papers. We consider these as the minimum necessary citations

  1. Neese, F.
     Software update: the ORCA program system, version 6.0
     WIRES Comput. Molec. Sci. 2025 15(1), e70019
     doi.org/10.1002/wcms.7019

List of papers to cite with high priority. The work reported in these papers was absolutely
necessary for this run to complete.
Our perspective: the developers of density functionals and basis sets usually get cited in chemistry papers
Good! But without the algorithms to do something with them, the functionals or basis sets would not do anything.
Hence, in our opinion, the algorithm design and method developments papers are equally worthy of getting cited

  1. Neese, F.
     An improvement of the resolution of the identity approximation for the formation of the Coulomb matrix
     J. Comp. Chem. 2003 24(14), 1740-1747
     doi.org/10.1002/jcc.10318
  2. Grimme, S.; Antony, J.; Ehrlich, S.; Krieg, H.
     A consistent and accurate ab initio parametrization of density functional dispersion correction (DFT-D) for the 94 elements H-Pu
     J. Chem. Phys. 2010 132 , 154104
     doi.org/10.1063/1.3382344
  3. Grimme, S.; Ehrlich, S.; Goerigk, L.
     Effect of the damping function in dispersion corrected density functional theory
     J. Comput. Chem. 2011 32(7), 1456-1465
     doi.org/10.1002/jcc.21759
  4. Bykov, D.; Petrenko, T.; Izsak, R.; Kossmann, S.; Becker, U.; Valeev, E.; Neese, F.
     Efficient implementation of the analytic second derivatives of Hartree-Fock and hybrid DFT energies: a detailed analysis of different approximations
     Molec. Phys. 2015 113 , 1961-1977
     doi.org/10.1080/00268976.2015.1025114
  5. Neese, F.
     The SHARK Integral Generation and Digestion System
     J. Comp. Chem. 2022 44(3), 381
     doi.org/10.1002/jcc.26942

List of suggested additional citations. These are papers that are important in the 'surrounding' of 
of this run, or papers that preceded the highly important papers. If you like your results we are grateful for a citation.

  1. Neese, F.
     The ORCA program system
     WIRES Comput. Molec. Sci. 2012 2(1), 73-78
     doi.org/10.1002/wcms.81
  2. Neese, F.
     Software update: the ORCA program system, version 4.0
     WIRES Comput. Molec. Sci. 2018 8(1), 1-6
     doi.org/10.1002/wcms.1327
  3. Neese, F.; Wennmohs, F.; Becker, U.; Riplinger, C.
     The ORCA quantum chemistry program package
     J. Chem. Phys. 2020 152(22), 224108
     doi.org/10.1063/5.0004608
  4. Neese, F.
     Software update: The ORCA program system—Version 5.0
     WIRES Comput. Molec. Sci. 2022 12(1), e1606
     doi.org/10.1002/wcms.1606

List of optional additional citations

  1. Neese, F.
     Approximate second-order SCF convergence for spin unrestricted wavefunctions
     Chem. Phys. Lett. 2000 325(1-3), 93-98
     doi.org/10.1016/s0009-2614(00)00662-x

Timings for individual modules:

Sum of individual times          ...      230.495 sec (=   3.842 min)
Startup calculation              ...       55.560 sec (=   0.926 min)  24.1 %
SCF iterations                   ...       82.846 sec (=   1.381 min)  35.9 %
Property integrals               ...       28.587 sec (=   0.476 min)  12.4 %
SCF Response                     ...        5.011 sec (=   0.084 min)   2.2 %
Property calculations            ...        9.973 sec (=   0.166 min)   4.3 %
SCF Gradient evaluation          ...       47.839 sec (=   0.797 min)  20.8 %
Geometry relaxation              ...        0.679 sec (=   0.011 min)   0.3 %
                             ****ORCA TERMINATED NORMALLY****
TOTAL RUN TIME: 0 days 0 hours 4 minutes 12 seconds 350 msec
