
                                 *****************
                                 * O   R   C   A *
                                 *****************

                                            #,                                       
                                            ###                                      
                                            ####                                     
                                            #####                                    
                                            ######                                   
                                           ########,                                 
                                     ,,################,,,,,                         
                               ,,#################################,,                 
                          ,,##########################################,,             
                       ,#########################################, ''#####,          
                    ,#############################################,,   '####,        
                  ,##################################################,,,,####,       
                ,###########''''           ''''###############################       
              ,#####''   ,,,,##########,,,,          '''####'''          '####       
            ,##' ,,,,###########################,,,                        '##       
           ' ,,###''''                  '''############,,,                           
         ,,##''                                '''############,,,,        ,,,,,,###''
      ,#''                                            '''#######################'''  
     '                                                          ''''####''''         
             ,#######,   #######,   ,#######,      ##                                
            ,#'     '#,  ##    ##  ,#'     '#,    #''#        ,####,    ,#,          
            ##       ##  ##   ,#'  ##            #'  '#       #'       ,# #          
            ##       ##  #######   ##           ,######,      #####,      #          
            '#,     ,#'  ##    ##  '#,     ,#' ,#      #,     #,   #      #          
             '#######'   ##     ##  '#######'  #'      '#     '####' #    #          



                #########################################################
                #                        -***-                          #
                #          Department of theory and spectroscopy        #
                #                                                       #
                #                      Frank Neese                      #
                #                                                       #
                #     Directorship, Architecture, Infrastructure        #
                #                    SHARK, DRIVERS                     #
                #        Core code/Algorithms in most modules           #
                #                                                       #
                #        Max Planck Institute fuer Kohlenforschung      #
                #                Kaiser Wilhelm Platz 1                 #
                #                 D-45470 Muelheim/Ruhr                 #
                #                      Germany                          #
                #                                                       #
                #                  All rights reserved                  #
                #                        -***-                          #
                #########################################################


                         Program Version 6.1.0  -  RELEASE   -
                                (GIT: $679e74b$)
                          ($2025-06-10 18:02:51 +0200$)


 With contributions from (in alphabetic order):
[Max-Planck-Institut fuer Kohlenforschung]                               
  Daniel Aravena         : Magnetic Suceptibility                        
  Michael Atanasov       : Ab Initio Ligand Field Theory (pilot matlab implementation)
  Alexander A. Auer      : GIAO ZORA, VPT2 properties, NMR spectrum      
  Ute Becker             : All parallelization in ORCA, NUMFREQ, NUMCALC 
  Giovanni Bistoni       : ED, misc. LED, open-shell LED, HFLD           
  Dmytro Bykov           : pre 5.0 version of the SCF Hessian            
  Marcos Casanova-Páez   : Triplet and SCS-CIS(D). UHF-(DLPNO)-IP/EA/STEOM-CCSD. UHF-CVS-IP/STEOM-CCSD   
  Vijay G. Chilkuri      : MRCI spin determinant printing, contributions to CSF-ICE 
  Pauline Colinet        : FMM embedding                                 
  Dipayan Datta          : RHF DLPNO-CCSD density                        
  Achintya Kumar Dutta   : EOM-CC, STEOM-CC                              
  Nicolas Foglia         : Exact transition moments, OPA infrastructure, MCD improvements    
  Dmitry Ganyushin       : Spin-Orbit,Spin-Spin,Magnetic field MRCI      
  Miquel Garcia-Rates    : C-PCM and meta-GGA Hessian, CCSD/C-PCM, Gaussian charge scheme 
  Tiago L. C. Gouveia    : GS-ROHF, GS-ROCIS                             
  Yang Guo               : DLPNO-NEVPT2, F12-NEVPT2, CIM, IAO-localization        
  Andreas Hansen         : Spin unrestricted coupled pair/coupled cluster methods 
  Ingolf Harden          : AUTO-CI MPn and infrastructure                
  Benjamin Helmich-Paris : MC-RPA, TRAH-(SCF,CASSCF), AVAS, COSX integrals, SCF dyn. polar., MC-PDFT, srDFT 
  Lee Huntington         : MR-EOM, pCC                                   
  Robert Izsak           : Overlap fitted RIJCOSX, COSX-SCS-MP3, EOM     
  Riya Kayal             : Wick's Theorem for AUTO-CI, AUTO-CI UHF-CCSDT 
  Emily Kempfer          : AUTO-CI RHF CISDT and CCSDT, approximate NEVPT4
  Christian Kollmar      : KDIIS, OOCD, Brueckner-CCSD(T), CCSD density, CASPT2, CASPT2-K, improved NEVPT2 
  Axel Koslowski         : Symmetry handling                             
  Simone Kossmann        : meta-GGA functionals, TD-DFT gradient, OOMP2, (MP2 Hessian; deprecated post 5.0) 
  Lucas Lang             : DCDCAS, Hyperfine gauge corrections, ICE-SOC+SSC
  Marvin Lechner         : AUTO-CI (C++ implementation), FIC-MRCC        
  Spencer Leger          : CASSCF response                               
  Dagmar Lenk            : GEPOL surface, SMD, ORCA-2-JSON               
  Dimitrios Liakos       : Extrapolation schemes; Compound Job, Property file
  Dimitrios Manganas     : Further ROCIS development; embedding schemes. LFT, Crystal Embedding 
  Dimitrios Pantazis     : SARC Basis sets                               
  Anastasios Papadopoulos: AUTO-CI, single reference methods and gradients 
  Taras Petrenko         : pre 6.0 DFT Hessian and TD-DFT gradient,  ECA, NRVS 
  Petra Pikulova         : Analytic Raman intensities                    
  Peter Pinski           : DLPNO-MP2, DLPNO-MP2 Gradient                 
  Shashank Vittal Rao    : ES-AILFT, MagRelax                            
  Christoph Reimann      : Effective Core Potentials                     
  Marius Retegan         : Local ZFS, SOC                                
  Christoph Riplinger    : Optimizer, TS searches, QM/MM, DLPNO-CCSD(T), (RO)-DLPNO pert. Triples 
  Michael Roemelt        : Original ROCIS implementation, recursive CI coupling coefficients
  Masaaki Saitow         : Open-shell DLPNO-CCSD energy and density      
  Barbara Sandhoefer     : DKH picture change effects                    
  Yorick L. A. Schmerwitz: GMF and freeze-and-release deltaSCF, NEB S-IDPP initial path                    
  Kantharuban Sivalingam : CASSCF convergence/infrastructure, NEVPT2, NEVPT3, NEVPT4(SD), FIC-MRCI and CEPA variants
  Bernardo de Souza      : ESD, SOC TD-DFT                               
  Georgi L. Stoychev     : AutoAux, RI-MP2 NMR, DLPNO-MP2 response, X2C  
  Van Anh Tran           : RI-MP2 g-tensors                              
  Willem Van den Heuvel  : Paramagnetic NMR                              
  Zikuan Wang            : NOTCH, Electric field optimization            
  Frank Wennmohs         : Technical directorship and infrastructure     
  Hang Xu                : AUTO-CI-Response properties                   
                                                                         
[FACCTs GmbH]                                                            
  Markus Bursch, Nicolas Foglia, Miquel Garcia-Rates, Ingolf Harden, Hagen Neugebauer, Anastasios Papadopoulos, 
  Christoph Riplinger, Bernardo de Souza, Georgi L. Stoychev                                                    
                                                                 
  APM, various basis sets, CI-OPT, improved COSX, DLPNO-Multilevel,           
  DOCKER, DRACO, updates on ESD, Fragmentator, GOAT, IRC, LR-CPCM, L-BFGS, MBIS, meta-GGA TD-DFT gradient, ML-optimized integration grids, 
  MM, NACMEs, nearIR, NEB, NEB-TS, NL-DFT gradient (VV10), 2- and 3-layer-ONIOM, interface openCOSMO-RS, QMMM,   
  Crystal-QMMM, RESP, rigid body optimization, SF, symmetry and pop. for TD-DFT, various functionals, SOLVATOR                                   
                                                                         
[Other institutions]                                                     
  V. Asgeirsson          : NEB                                           
  Christoph Bannwarth    : sTDA-DFT, sTD-DFT, PBEh-3c, B97-3c, D3        
  Giovanni Bistoni       : ETS/NOCV, ADLD/ADEX, COVALED                  
  Martin Brehm           : Molecular dynamics                            
  Ronald Cardenas        : ETS/NOCV                                      
  Martina Colucci        : COVALED                                       
  Sebastian Ehlert       : rSCAN, r2SCAN, r2SCAN-3c, D4, dhf basis sets  
  Marvin Friede          : D4 for Fr, Ra, Ac-Lr                          
  Lars Goerigk           : TD-DFT with DH, B97 family of functionals     
  Stefan Grimme          : VdW corrections, initial TS optimization, DFT functionals, gCP, sTDA/sTD-DF 
  Waldemar Hujo          : DFT-NL                                        
  H. Jonsson             : NEB                                           
  Holger Kruse           : gCP                                           
  Marcel Mueller         : wB97X-3c, vDZP basis set                      
  Hagen Neugebauer       : wr2SCAN, Native XTB                           
  Gianluca Regni         : ADLD/ADEX                                     
  Tobias Risthaus        : pre 6.0 range-separated hybrid DFT and stability analysis
  Lukas Wittmann         : regularized MP2, r2SCAN double-hybrids, wr2SCAN        
                                                                         
We gratefully acknowledge several colleagues who have allowed us to      
interface, adapt or use parts of their codes:                            
  Ed Valeev, F. Pavosevic, A. Kumar             : LibInt (2-el integral package), F12 methods 
  Garnet Chan, S. Sharma, J. Yang, R. Olivares  : DMRG                   
  Ulf Ekstrom                                   : XCFun DFT Library      
  Mihaly Kallay                                 : mrcc  (arbitrary order and MRCC methods)
  Frank Weinhold                                : gennbo (NPA and NBO analysis)           
  Simon Mueller                                 : openCOSMO-RS                            
  Christopher J. Cramer and Donald G. Truhlar   : smd solvation model                     
  S Lehtola, MJT Oliveira, MAL Marques          : LibXC Library                           
  Liviu Ungur et al                             : ANISO software                          


 Your calculation uses the libint2 library for the computation of 2-el integrals
 For citations please refer to: http://libint.valeyev.net

 Your ORCA version has been built with support for libXC version: 7.0.0
 For citations please refer to: https://libxc.gitlab.io

 This ORCA versions uses:
   CBLAS   interface :  Fast vector & matrix operations
   LAPACKE interface :  Fast linear algebra routines
   SCALAPACK package :  Parallel linear algebra routines
   Shared memory     :  Shared parallel matrices
   BLAS/LAPACK       :  OpenBLAS 0.3.29  USE64BITINT DYNAMIC_ARCH NO_AFFINITY Bulldozer SINGLE_THREADED
        Core in use  :  Bulldozer
   Copyright (c) 2011-2014, The OpenBLAS Project


  ***********************************
  * Starting time: Thu Aug 14 16:42:10 2025
  * Host name:     chromium08
  * Process ID:    276127
  * Working dir.:  /local/scratch/mehlhorn/61923
  ***********************************



***************************************
The coordinates will be read from file: start.xyz
***************************************


Your calculation utilizes the atom-pairwise dispersion correction
with the Becke-Johnson damping scheme (D3BJ)


Warning: RI is on but no J-basis has been assigned. Assigning Def2/J (nothing to worry about!)
================================================================================

----- Orbital basis set information -----
Your calculation utilizes the basis: def2-SV(P)
   F. Weigend and R. Ahlrichs, Phys. Chem. Chem. Phys. 7, 3297 (2005).

----- AuxJ basis set information -----
Your calculation utilizes the auxiliary basis: def2/J
   H-Rn: F. Weigend, Phys. Chem. Chem. Phys. 8, 1057 (2006).
   Fr-Lr: K. Eichkorn, F. Weigend, O. Treutler, R. Ahlrichs; Theor. Chem. Acc. 97, 119 (1997).

================================================================================
                                        WARNINGS
                       Please study these warnings very carefully!
================================================================================


WARNING: Gradients are needed
  ===> : At least TightSCF should be used for SCF convergence

WARNING: Geometry Optimization
  ===> : Switching off AutoStart
         For restart on a previous wavefunction, please use MOREAD

================================================================================
                                       INPUT FILE
================================================================================
NAME = run.inp
|  1> # Geometry optimization for (AlH3)n cluster
|  2> 
|  3> %pal nprocs 24  end
|  4> 
|  5> %geom MaxIter 500 end
|  6> 
|  7> 
|  8> ! PBE def2-SV(P)
|  9> ! RKS	# closed shell for AlH3
| 10> ! D3    #  dispersion correction
| 11> ! Freq 	# Frequency analysis to check the stabiltity of the structures
| 12> 
| 13> ! NoPop # population analysis not necessary	
| 14> 
| 15> ! RI
| 16> ! DEFGRID2
| 17> ! NormalSCF
| 18> ! SloppyOpt
| 19> 
| 20> ! SmallPrint
| 21> 
| 22> 
| 23> * xyzFile 0 1 start.xyz # only maingroup elements H and Al so there should be no net spin
| 24> 
| 25>                          ****END OF INPUT****
================================================================================

                       *****************************
                       * Geometry Optimization Run *
                       *****************************

Geometry optimization settings:
Update method            Update   .... BFGS
Choice of coordinates    CoordSys .... (2022) Redundant Internals
Initial Hessian          InHess   .... Almloef's Model
Max. no of cycles        MaxIter  .... 500

Convergence Tolerances:
Energy Change            TolE     ....  8.0000e-05 Eh
Max. Gradient            TolMAXG  ....  5.0000e-03 Eh/bohr
RMS Gradient             TolRMSG  ....  1.0000e-03 Eh/bohr
Max. Displacement        TolMAXD  ....  3.0000e-02 bohr
RMS Displacement         TolRMSD  ....  2.0000e-02 bohr
Strict Convergence                .... False

------------------------------------------------------------------------------
                        ORCA OPTIMIZATION COORDINATE SETUP
------------------------------------------------------------------------------

The optimization will be done in redundant internal coordinates (2022)
Making redundant internal coordinates   ...  (2022 redundants) done
Evaluating the initial hessian          ...  (Almloef) done
Evaluating the coordinates              ...  done
Calculating the B-matrix                .... done
Calculating the G-matrix                .... done
The number of degrees of freedom        ....  149

    -----------------------------------------------------------------
                    Redundant Internal Coordinates


    -----------------------------------------------------------------
         Definition                    Initial Value    Approx d2E/dq
    -----------------------------------------------------------------
      1. B(Al  1,Al  0)                  3.1887         0.041419   
      2. B(H   2,Al  1)                  1.7014         0.267051   
      3. B(H   3,Al  1)                  1.8223         0.171263   
      4. B(H   4,Al  1)                  2.0858         0.065050   
      5. B(H   5,Al  0)                  1.5953         0.394337   
      6. B(H   6,Al  0)                  1.7025         0.265963   
      7. B(H   7,Al  1)                  1.6509         0.321489   
      8. B(Al  8,H   2)                  1.7011         0.267316   
      9. B(Al  8,Al  1)                  3.2024         0.039391   
     10. B(H   9,Al  8)                  1.5224         0.515476   
     11. B(H  10,Al  8)                  2.2781         0.032094   
     12. B(H  11,Al  0)                  1.5979         0.390588   
     13. B(Al 12,H   9)                  1.8822         0.137422   
     14. B(Al 12,Al  8)                  3.0079         0.080461   
     15. B(Al 12,H   6)                  1.7019         0.266550   
     16. B(Al 12,Al  0)                  3.1300         0.051382   
     17. B(H  13,Al 12)                  1.3615         0.930874   
     18. B(H  14,Al 12)                  1.6147         0.367123   
     19. B(H  15,H  10)                  2.7057         0.010000   
     20. B(H  15,Al  8)                  0.8570         5.938353   
     21. A(Al  1,Al  0,Al 12)           88.3807         0.254261   
     22. A(Al  1,Al  0,H  11)          119.2182         0.303417   
     23. A(H   5,Al  0,H   6)          109.2681         0.357350   
     24. A(H   5,Al  0,Al 12)          129.4012         0.314625   
     25. A(Al  1,Al  0,H   5)          117.4708         0.303881   
     26. A(Al  1,Al  0,H   6)           89.1448         0.285555   
     27. A(H   5,Al  0,H  11)          109.6796         0.381736   
     28. A(H   6,Al  0,H  11)          109.6231         0.356771   
     29. A(H   6,Al  0,Al 12)           23.1555         0.295383   
     30. A(H  11,Al  0,Al 12)           89.8896         0.314138   
     31. A(H   2,Al  1,Al  8)           19.7470         0.283514   
     32. A(H   3,Al  1,H   4)          113.1141         0.250547   
     33. A(H   2,Al  1,H   7)           91.8206         0.345464   
     34. A(Al  0,Al  1,H   3)          114.0997         0.266917   
     35. A(H   2,Al  1,H   4)          123.9461         0.267635   
     36. A(H   2,Al  1,H   3)          116.7981         0.311394   
     37. A(Al  0,Al  1,Al  8)           87.9291         0.244613   
     38. A(H   7,Al  1,Al  8)           73.1631         0.291856   
     39. A(H   4,Al  1,Al  8)          110.6569         0.230295   
     40. A(Al  0,Al  1,H   7)          104.4058         0.294174   
     41. A(Al  0,Al  1,H   2)           89.4044         0.285737   
     42. A(H   4,Al  1,H   7)           73.1210         0.275296   
     43. A(Al  0,Al  1,H   4)           46.7485         0.231910   
     44. A(H   3,Al  1,Al  8)          134.6789         0.264907   
     45. A(H   3,Al  1,H   7)          131.0037         0.320931   
     46. A(Al  1,H   2,Al  8)          140.5028         0.334973   
     47. A(Al  0,H   6,Al 12)          133.6804         0.334586   
     48. A(H  10,Al  8,H  15)          110.9572         0.396195   
     49. A(H  10,Al  8,Al 12)          133.5076         0.230544   
     50. A(H   9,Al  8,H  10)          107.7720         0.265672   
     51. A(Al  1,Al  8,H  10)          126.1425         0.209416   
     52. A(Al 12,Al  8,H  15)           78.7457         0.550372   
     53. A(H   9,Al  8,H  15)          105.8892         0.664875   
     54. A(H   2,Al  8,H  15)          126.2908         0.585341   
     55. A(Al  1,Al  8,H  15)          106.5424         0.481504   
     56. A(H   2,Al  8,H   9)           90.2838         0.374452   
     57. A(Al  1,Al  8,H   9)           97.2031         0.314734   
     58. A(Al  1,Al  8,H   2)           19.7502         0.283558   
     59. A(H   2,Al  8,H  10)          111.8603         0.241272   
     60. A(H   9,Al  8,Al 12)           31.3351         0.354340   
     61. A(H   2,Al  8,Al 12)           93.9519         0.317694   
     62. A(Al  1,Al  8,Al 12)           90.2912         0.269850   
     63. A(Al  8,H   9,Al 12)          123.7917         0.334543   
     64. A(Al  8,H  10,H  15)           17.2053         0.108795   
     65. A(Al  0,Al 12,H   6)           23.1641         0.295486   
     66. A(H  13,Al 12,H  14)          106.9244         0.439603   
     67. A(H   9,Al 12,H  14)          116.8514         0.316388   
     68. A(Al  8,Al 12,H  14)          105.9552         0.334721   
     69. A(H   6,Al 12,H  14)          159.1482         0.353174   
     70. A(Al  0,Al 12,H  14)          139.5297         0.311003   
     71. A(H   9,Al 12,H  13)          119.8475         0.369689   
     72. A(Al  8,Al 12,H  13)          142.4382         0.392319   
     73. A(H   6,Al 12,H  13)           63.3855         0.415098   
     74. A(Al  0,Al 12,H  13)           73.6345         0.363042   
     75. A(Al  8,Al 12,H   9)           24.8733         0.285721   
     76. A(H   6,Al 12,H   9)           83.2573         0.300494   
     77. A(Al  0,Al 12,H   9)           95.0081         0.266733   
     78. A(H   6,Al 12,Al  8)           90.1985         0.317546   
     79. A(Al  0,Al 12,Al  8)           92.5574         0.281062   
     80. A(Al  8,H  15,H  10)           51.8375         0.153523   
     81. D(H   2,Al  1,Al  0,H  11)    115.3264         0.010000   
     82. D(H   3,Al  1,Al  0,H   5)     11.1446         0.010000   
     83. D(H   4,Al  1,Al  0,H   5)    110.9106         0.010000   
     84. D(H   2,Al  1,Al  0,Al 12)     26.3590         0.010000   
     85. D(H   2,Al  1,Al  0,H   6)      3.2105         0.010000   
     86. D(H   2,Al  1,Al  0,H   5)   -108.1482         0.010000   
     87. D(H   3,Al  1,Al  0,H  11)   -125.3807         0.010000   
     88. D(H   3,Al  1,Al  0,H   6)    122.5033         0.010000   
     89. D(H   3,Al  1,Al  0,Al 12)    145.6519         0.010000   
     90. D(Al  8,H   2,Al  1,Al  0)    -85.5264         0.010000   
     91. D(Al  8,H   2,Al  1,H   3)    157.5867         0.010000   
     92. D(Al  8,H   2,Al  1,H   4)    -51.9367         0.010000   
     93. D(Al  8,H   2,Al  1,H   7)     18.8682         0.010000   
     94. D(Al 12,H   6,Al  0,H   5)   -153.2040         0.010000   
     95. D(Al 12,H   6,Al  0,Al  1)     87.8814         0.010000   
     96. D(Al 12,H   6,Al  0,H  11)    -32.9805         0.010000   
     97. D(Al 12,Al  8,H   2,Al  1)     79.7855         0.010000   
     98. D(H   9,Al  8,Al  1,H   7)    129.4454         0.010000   
     99. D(Al 12,Al  8,Al  1,Al  0)     -6.9302         0.010000   
    100. D(H   9,Al  8,Al  1,H   4)     65.4402         0.010000   
    101. D(H  15,Al  8,H   2,Al  1)      0.8539         0.010000   
    102. D(H   9,Al  8,Al  1,H   3)    -98.8878         0.010000   
    103. D(H   9,Al  8,Al  1,H   2)    -70.2917         0.010000   
    104. D(H  10,Al  8,H   2,Al  1)   -139.7462         0.010000   
    105. D(H   9,Al  8,Al  1,Al  0)     23.7190         0.010000   
    106. D(H   2,Al  8,Al  1,H   7)   -160.2629         0.010000   
    107. D(H   9,Al  8,H   2,Al  1)    110.9323         0.010000   
    108. D(H   2,Al  8,Al  1,H   4)    135.7319         0.010000   
    109. D(H   2,Al  8,Al  1,H   3)    -28.5961         0.010000   
    110. D(H   2,Al  8,Al  1,Al  0)     94.0107         0.010000   
    111. D(Al 12,H   9,Al  8,Al  1)    -78.5958         0.014381   
    112. D(Al 12,H   9,Al  8,H  10)    149.7381         0.014381   
    113. D(Al 12,H   9,Al  8,H  15)     30.9381         0.014381   
    114. D(Al 12,H   9,Al  8,H   2)    -97.1457         0.014381   
    115. D(H  15,H  10,Al  8,Al 12)    -94.3246         0.010000   
    116. D(H  15,H  10,Al  8,H   9)   -115.5074         0.010000   
    117. D(H  15,H  10,Al  8,H   2)    146.7804         0.010000   
    118. D(H  15,H  10,Al  8,Al  1)    131.0928         0.010000   
    119. D(Al  0,Al 12,H   9,Al  8)     85.2664         0.010000   
    120. D(H   6,Al 12,Al  8,H  10)   -114.7725         0.010000   
    121. D(H   6,Al 12,Al  8,H  15)    136.9313         0.010000   
    122. D(H   6,Al 12,Al  8,H   2)     10.6905         0.010000   
    123. D(H   6,Al 12,Al  8,Al  1)     30.1153         0.010000   
    124. D(Al  0,Al 12,Al  8,H  10)   -137.8246         0.010000   
    125. D(Al  0,Al 12,Al  8,H   9)    -96.3967         0.010000   
    126. D(Al  0,Al 12,Al  8,H   2)    -12.3616         0.010000   
    127. D(Al  0,Al 12,Al  8,Al  1)      7.0632         0.010000   
    128. D(H  14,Al 12,H   6,Al  0)     45.3378         0.010000   
    129. D(H  13,Al 12,H   6,Al  0)    111.7125         0.010000   
    130. D(H   9,Al 12,H   6,Al  0)   -119.9862         0.010000   
    131. D(Al  8,Al 12,H   6,Al  0)    -96.0466         0.010000   
    132. D(H   9,Al 12,Al  0,H   5)     93.1237         0.010000   
    133. D(H   9,Al 12,Al  0,Al  1)    -31.9055         0.010000   
    134. D(Al  0,Al 12,Al  8,H  15)    113.8792         0.010000   
    135. D(Al  8,Al 12,Al  0,H  11)   -126.3310         0.010000   
    136. D(Al  8,Al 12,Al  0,H   6)     84.5154         0.010000   
    137. D(Al  8,Al 12,Al  0,H   5)    117.9327         0.010000   
    138. D(H   6,Al 12,Al  8,H   9)    -73.3446         0.010000   
    139. D(Al  8,Al 12,Al  0,Al  1)     -7.0964         0.010000   
    140. D(H   6,Al 12,Al  0,H  11)    149.1535         0.010000   
    141. D(H   6,Al 12,Al  0,H   5)     33.4173         0.010000   
    142. D(H   6,Al 12,H   9,Al  8)    105.2663         0.010000   
    143. D(H   6,Al 12,Al  0,Al  1)    -91.6118         0.010000   
    144. D(H  14,Al 12,H   9,Al  8)    -68.9323         0.010000   
    145. D(H  13,Al 12,H   9,Al  8)    159.2557         0.010000   
    146. D(H  10,H  15,Al  8,Al 12)    132.4898         4.616354   
    147. D(H  10,H  15,Al  8,H   9)    116.6706         4.616354   
    148. D(H  10,H  15,Al  8,H   2)   -140.8894         4.616354   
    149. D(H  10,H  15,Al  8,Al  1)   -140.5884         4.616354   
    -----------------------------------------------------------------

Number of atoms                         .... 16
Number of degrees of freedom            .... 149


         *************************************************************
         *                GEOMETRY OPTIMIZATION CYCLE   1            *
         *************************************************************
---------------------------------
CARTESIAN COORDINATES (ANGSTROEM)
---------------------------------
  Al    -0.334910    1.128240    2.788780
  Al     0.131570   -0.237880   -0.054440
  H     -0.138010   -1.761440    0.653210
  H     -1.048820    0.292520   -1.337460
  H      1.042610    1.359110    0.930570
  H     -1.687050    1.948480    2.998140
  H     -0.504810   -0.419960    3.476290
  H      1.760240   -0.499040   -0.122370
  Al     0.695350   -2.986740    1.488620
  H     -0.073070   -2.653160    2.759770
  H      0.050980   -5.064280    0.811520
  H      0.875790    1.897910    3.492360
  Al     0.594870   -1.544490    4.126330
  H     -0.265120   -0.955950    5.002480
  H      1.829450   -2.119420    4.993890
  H      1.524190   -2.978700    1.706540

----------------------------
CARTESIAN COORDINATES (A.U.)
----------------------------
  NO LB      ZA    FRAG     MASS         X           Y           Z
   0 Al   13.0000    0    26.982   -0.632888    2.132065    5.270030
   1 Al   13.0000    0    26.982    0.248631   -0.449528   -0.102877
   2 H     1.0000    0     1.008   -0.260801   -3.328639    1.234388
   3 H     1.0000    0     1.008   -1.981983    0.552783   -2.527433
   4 H     1.0000    0     1.008    1.970247    2.568346    1.758522
   5 H     1.0000    0     1.008   -3.188062    3.682094    5.665664
   6 H     1.0000    0     1.008   -0.953953   -0.793609    6.569236
   7 H     1.0000    0     1.008    3.326372   -0.943049   -0.231246
   8 Al   13.0000    0    26.982    1.314021   -5.644121    2.813084
   9 H     1.0000    0     1.008   -0.138082   -5.013746    5.215209
  10 H     1.0000    0     1.008    0.096338   -9.570102    1.533551
  11 H     1.0000    0     1.008    1.655003    3.586530    6.599604
  12 Al   13.0000    0    26.982    1.124141   -2.918663    7.797634
  13 H     1.0000    0     1.008   -0.501004   -1.806484    9.453317
  14 H     1.0000    0     1.008    3.457159   -4.005123    9.437084
  15 H     1.0000    0     1.008    2.880302   -5.628927    3.224893

--------------------------------
INTERNAL COORDINATES (ANGSTROEM)
--------------------------------
 Al     0   0   0     0.000000000000     0.00000000     0.00000000
 Al     1   0   0     3.188696820521     0.00000000     0.00000000
 H      2   1   0     1.701375024061    89.40442192     0.00000000
 H      2   1   3     1.822302124375   114.09973830   119.29288424
 H      2   1   3     2.085812945065    46.74847545   219.05884418
 H      1   2   3     1.595276730477   117.47081525   251.85176374
 H      1   2   3     1.702486196743    89.14476205     3.21046077
 H      2   1   3     1.650874010759   104.40584625   268.27323819
 Al     3   2   1     1.701105184196   140.50277328   274.47363588
 H      9   3   2     1.522355817574    90.28375695   110.93226490
 H      9   3   2     2.278124131495   111.86034707   220.25384047
 H      1   2   3     1.597877096431   119.21817801   115.32643808
 Al     7   1   2     1.701885961191   133.68037010    87.88138971
 H     13   7   1     1.361470144439    63.38549769   111.71248353
 H     13   7   1     1.614742281263   159.14818806    45.33779606
 H      9   3   2     0.857046972808   126.29079463     0.85385620

---------------------------
INTERNAL COORDINATES (A.U.)
---------------------------
 Al     0   0   0     0.000000000000     0.00000000     0.00000000
 Al     1   0   0     6.025763714890     0.00000000     0.00000000
 H      2   1   0     3.215132846570    89.40442192     0.00000000
 H      2   1   3     3.443651948331   114.09973830   119.29288424
 H      2   1   3     3.941615232760    46.74847545   219.05884418
 H      1   2   3     3.014636128418   117.47081525   251.85176374
 H      1   2   3     3.217232658625    89.14476205     3.21046077
 H      2   1   3     3.119699761943   104.40584625   268.27323819
 Al     3   2   1     3.214622923125   140.50277328   274.47363588
 H      9   3   2     2.876835573596    90.28375695   110.93226490
 H      9   3   2     4.305030707603   111.86034707   220.25384047
 H      1   2   3     3.019550107921   119.21817801   115.32643808
 Al     7   1   2     3.216098377817   133.68037010    87.88138971
 H     13   7   1     2.572805712501    63.38549769   111.71248353
 H     13   7   1     3.051420688451   159.14818806    45.33779606
 H      9   3   2     1.619584062514   126.29079463     0.85385620

---------------------
BASIS SET INFORMATION
---------------------
There are 2 groups of distinct atoms

 Group   1 Type Al  : 10s7p1d contracted to 4s3p1d pattern {5311/511/1}
 Group   2 Type H   : 4s contracted to 2s pattern {31}

Atom   0Al   basis set group =>   1
Atom   1Al   basis set group =>   1
Atom   2H    basis set group =>   2
Atom   3H    basis set group =>   2
Atom   4H    basis set group =>   2
Atom   5H    basis set group =>   2
Atom   6H    basis set group =>   2
Atom   7H    basis set group =>   2
Atom   8Al   basis set group =>   1
Atom   9H    basis set group =>   2
Atom  10H    basis set group =>   2
Atom  11H    basis set group =>   2
Atom  12Al   basis set group =>   1
Atom  13H    basis set group =>   2
Atom  14H    basis set group =>   2
Atom  15H    basis set group =>   2
---------------------------------
AUXILIARY/J BASIS SET INFORMATION
---------------------------------
There are 2 groups of distinct atoms

 Group   1 Type Al  : 14s5p5d2f1g contracted to 8s4p3d1f1g pattern {71111111/2111/311/2/1}
 Group   2 Type H   : 5s2p1d contracted to 3s1p1d pattern {311/2/1}

Atom   0Al   basis set group =>   1
Atom   1Al   basis set group =>   1
Atom   2H    basis set group =>   2
Atom   3H    basis set group =>   2
Atom   4H    basis set group =>   2
Atom   5H    basis set group =>   2
Atom   6H    basis set group =>   2
Atom   7H    basis set group =>   2
Atom   8Al   basis set group =>   1
Atom   9H    basis set group =>   2
Atom  10H    basis set group =>   2
Atom  11H    basis set group =>   2
Atom  12Al   basis set group =>   1
Atom  13H    basis set group =>   2
Atom  14H    basis set group =>   2
Atom  15H    basis set group =>   2


           ************************************************************
           *        Program running with 24 parallel MPI-processes    *
           *              working on a common directory               *
           ************************************************************
------------------------------------------------------------------------------
                             ORCA STARTUP CALCULATIONS
                           -- RI-GTO INTEGRALS CHOSEN --
------------------------------------------------------------------------------
------------------------------------------------------------------------------
                   ___                                                        
                  /   \      - P O W E R E D   B Y -                         
                 /     \                                                     
                 |  |  |   _    _      __       _____    __    __             
                 |  |  |  | |  | |    /  \     |  _  \  |  |  /  |          
                  \  \/   | |  | |   /    \    | | | |  |  | /  /          
                 / \  \   | |__| |  /  /\  \   | |_| |  |  |/  /          
                |  |  |   |  __  | /  /__\  \  |    /   |      \           
                |  |  |   | |  | | |   __   |  |    \   |  |\   \          
                \     /   | |  | | |  |  |  |  | |\  \  |  | \   \       
                 \___/    |_|  |_| |__|  |__|  |_| \__\ |__|  \__/        
                                                                              
                      - O R C A' S   B I G   F R I E N D -                    
                                      &                                       
                       - I N T E G R A L  F E E D E R -                       
                                                                              
 v1 FN, 2020, v2 2021, v3 2022-2024                                           
------------------------------------------------------------------------------


----------------------
SHARK INTEGRAL PACKAGE
----------------------

Number of atoms                             ...     16
Number of basis functions                   ...     96
Number of shells                            ...     56
Maximum angular momentum                    ...      2
Integral batch strategy                     ... SHARK/LIBINT Hybrid
RI-J (if used) integral strategy            ... SPLIT-RIJ (Revised 2003 algorithm where possible)
Printlevel                                  ...      1
Contraction scheme used                     ... SEGMENTED contraction
Prescreening option                         ... SCHWARTZ
   Thresh                                   ... 1.000e-10
   Tcut                                     ... 1.000e-11
   Tpresel                                  ... 1.000e-11 
Coulomb Range Separation                    ... NOT USED
Exchange Range Separation                   ... NOT USED
Multipole approximations                    ... NOT USED
Finite Nucleus Model                        ... NOT USED
CABS basis                                  ... NOT available
Auxiliary Coulomb fitting basis             ... AVAILABLE
   # of basis functions in Aux-J            ...    336
   # of shells in Aux-J                     ...    128
   Maximum angular momentum in Aux-J        ...      4
Auxiliary J/K fitting basis                 ... NOT available
Auxiliary Correlation fitting basis         ... NOT available
Auxiliary 'external' fitting basis          ... NOT available

Checking pre-screening integrals            ... done (  0.0 sec) Dimension = 56
   => SHARK Basis and OBASIS are compatible. Storing Pre-screening
Shell pair information
Shell pair cut-off parameter TPreSel        ...   1.0e-11
Total number of shell pairs                 ...      1596
Shell pairs after pre-screening             ...      1511
Total number of primitive shell pairs       ...      7388
Primitive shell pairs kept                  ...      4765
          la=0 lb=0:    761 shell pairs
          la=1 lb=0:    456 shell pairs
          la=1 lb=1:     76 shell pairs
          la=2 lb=0:    160 shell pairs
          la=2 lb=1:     48 shell pairs
          la=2 lb=2:     10 shell pairs

Checking whether 4 symmetric matrices of dimension 96 fit in memory
:Max Core in MB      =   4096.00
 MB in use           =      5.32
 MB left             =   4090.68
 MB needed           =      0.14
 Data fit in memory  = YES
Calculating RI/J V-Matrix + Cholesky decomp.... done (  0.1 sec)
Calculating Nuclear repulsion               ... done (  0.0 sec) ENN=    284.699198908254 Eh

Diagonalization of the overlap matrix:
Smallest eigenvalue                        ... 4.195e-03
Time for diagonalization                   ...    0.037 sec
Threshold for overlap eigenvalues          ... 1.000e-07
Number of eigenvalues below threshold      ... 0
Time for construction of square roots      ...    0.001 sec
Total time needed                          ...    0.040 sec

-------------------
DFT GRID GENERATION
-------------------

General Integration Accuracy     IntAcc      ... 4.388
Radial Grid Type                 RadialGrid  ... OptM3 with GC (2021)
Angular Grid (max. ang.)         AngularGrid ... 4 (Lebedev-302)
Angular grid pruning method      GridPruning ... 4 (adaptive)
Weight generation scheme         WeightScheme... mBecke (2022)
Basis function cutoff            BFCut       ... 1.0000e-10
Integration weight cutoff        WCut        ... 1.0000e-14
Partially contracted basis set               ... off
Rotationally invariant grid construction     ... off
Angular grids for H and He will be reduced by one unit

Total number of grid points                  ...    68038
Total number of batches                      ...     1071
Average number of points per batch           ...       63
Average number of grid points per atom       ...     4252
Grids setup in   1.1 sec
Initializing property integral containers    ... done (  0.0 sec)

SHARK setup successfully completed in   1.6 seconds

Maximum memory used throughout the entire STARTUP-calculation: 16.6 MB


           ************************************************************
           *        Program running with 24 parallel MPI-processes    *
           *              working on a common directory               *
           ************************************************************
-------------------------------------------------------------------------------
                                 ORCA GUESS
                   Start orbitals & Density for SCF / CASSCF
-------------------------------------------------------------------------------

------------
SCF SETTINGS
------------
Hamiltonian:
 Density Functional     Method          .... DFT(GTOs)
 Exchange Functional    Exchange        .... PBE
   PBE kappa parameter   XKappa         ....  0.804000
   PBE mue parameter    XMuePBE         ....  0.219520
 Correlation Functional Correlation     .... PBE
   PBE beta parameter  CBetaPBE         ....  0.066725
 LDA part of GGA corr.  LDAOpt          .... PW91-LDA
 Gradients option       PostSCFGGA      .... off
   NL short-range parameter             ....  6.400000
 RI-approximation to the Coulomb term is turned on
   Number of AuxJ basis functions       .... 336


General Settings:
 Integral files         IntName         .... run
 Hartree-Fock type      HFTyp           .... RHF
 Total Charge           Charge          ....    0
 Multiplicity           Mult            ....    1
 Number of Electrons    NEL             ....   64
 Basis Dimension        Dim             ....   96
 Nuclear Repulsion      ENuc            ....    284.6991989083 Eh

Convergence Acceleration:
 AO-DIIS                CNVDIIS         .... on
   Start iteration      DIISMaxIt       ....    12
   Startup error        DIISStart       ....  0.200000
   # of expansion vecs  DIISMaxEq       ....     5
   Bias factor          DIISBfac        ....   1.050
   Max. coefficient     DIISMaxC        ....  10.000
 MO-DIIS                CNVKDIIS        .... off
 Trust-Rad. Augm. Hess. CNVTRAH         .... auto
   Auto Start mean grad. ratio tolernc. ....  1.125000
   Auto Start start iteration           ....    50
   Auto Start num. interpolation iter.  ....    10
   Max. Number of Micro iterations      ....    24
   Max. Number of Macro iterations      .... Maxiter - #DIIS iter
   Number of Davidson start vectors     ....     2
   Converg. threshold    (grad. norm)   ....   5.000e-05
   Grad. Scal. Fac. for Micro threshold ....   0.100
   Minimum threshold for Micro iter.    ....   1.000e-02
   NR start threshold (gradient norm)   ....   1.000e-04
   Initial trust radius                 ....   0.400
   Minimum AH scaling param. (alpha)    ....   1.000
   Maximum AH scaling param. (alpha)    .... 1000.000
   Quad. conv. algorithm                .... NR
   White noise on init. David. guess    .... on
   Maximum white noise                  ....   0.010
   Pseudo random numbers                .... off
   Inactive MOs                         .... canonical
   Orbital update algorithm             .... Taylor
   Preconditioner                       .... Diag
   Full preconditioner red. dimension   ....   250
 SOSCF                 CNVSOSCF           .... on
   Start iteration     SOSCFMaxIt         ....   150
   Startup grad/error  SOSCFStart         ....  0.003300
   Hessian update      SOSCFHessUp        .... L-BFGS
   Autom. constraints  SOSCFAutoConstrain .... off
 Level Shifting         CNVShift        .... on
   Level shift para.    LevelShift      ....    0.2500
   Turn off err/grad.   ShiftErr        ....    0.0010
 Zerner damping         CNVZerner       .... off
 Static damping         CNVDamp         .... on
   Fraction old density DampFac         ....    0.7000
   Max. Damping (<1)    DampMax         ....    0.9800
   Min. Damping (>=0)   DampMin         ....    0.0000
   Turn off err/grad.   DampErr         ....    0.1000

SCF Procedure:
 Maximum # iterations   MaxIter         ....   125
 SCF integral mode      SCFMode         .... Direct
   Integral package                     .... SHARK and LIBINT hybrid scheme
 Reset frequency        DirectResetFreq ....    20
 Integral Threshold     Thresh          ....  1.000e-10 Eh
 Primitive CutOff       TCut            ....  1.000e-11 Eh

Convergence Tolerance:
 Convergence Check Mode ConvCheckMode   .... Total+1el-Energy
 Convergence forced     ConvForced      .... 0
 Energy Change          TolE            ....  1.000e-06 Eh
 1-El. energy change                    ....  1.000e-03 Eh
 Orbital Gradient       TolG            ....  5.000e-05
 Orbital Rotation angle TolX            ....  5.000e-05
 DIIS Error             TolErr          ....  1.000e-05

------------------------------
INITIAL GUESS: MODEL POTENTIAL
------------------------------
Loading Hartree-Fock densities                     ... done
Calculating cut-offs                               ... done
Initializing the effective Hamiltonian             ... done
Setting up the integral package (SHARK)            ... done
Starting the Coulomb interaction                   ... done (   0.1 sec)
Making the grid                                    ... done (   0.1 sec)
Mapping shells                                     ... done
Starting the XC term evaluation                    ... done (   0.0 sec)
  promolecular density results
     # of electrons  =     63.988542027
     EX              =    -75.619752401
     EC              =     -2.202317224
     EX+EC           =    -77.822069625
Transforming the Hamiltonian                       ... done (   0.0 sec)
Diagonalizing the Hamiltonian                      ... done (   0.0 sec)
Back transforming the eigenvectors                 ... done (   0.0 sec)
Now organizing SCF variables                       ... done
                      ------------------
                      INITIAL GUESS DONE (   0.3 sec)
                      ------------------
             **** ENERGY FILE WAS UPDATED (run.en.tmp) ****
Finished Guess after   0.9 sec
Maximum memory used throughout the entire GUESS-calculation: 7.6 MB


           ************************************************************
           *        Program running with 24 parallel MPI-processes    *
           *              working on a common directory               *
           ************************************************************

-------------------------------------------------------------------------------------------
                                      ORCA LEAN-SCF
                              memory conserving SCF solver
-------------------------------------------------------------------------------------------

----------------------------------------D-I-I-S--------------------------------------------
Iteration    Energy (Eh)           Delta-E    RMSDP     MaxDP     DIISErr   Damp  Time(sec)
-------------------------------------------------------------------------------------------
               ***  Starting incremental Fock matrix formation  ***
    1    -975.2262714666226202     0.00e+00  1.98e-02  1.20e-01  1.05e-01  0.700   0.2
Warning: op=0 Small HOMO/LUMO gap (   0.068) - skipping pre-diagonalization
         Will do a full diagonalization
    2    -975.2636366139256552    -3.74e-02  1.97e-02  9.80e-02  6.95e-02  0.700   0.2
                               ***Turning on AO-DIIS***
    3    -975.2850642704461279    -2.14e-02  9.47e-03  4.89e-02  3.76e-02  0.700   0.1
    4    -975.2963940175820881    -1.13e-02  1.71e-02  9.43e-02  2.19e-02  0.000   0.1
    5    -975.3187289788279486    -2.23e-02  2.99e-03  1.04e-02  7.11e-03  0.000   0.1
                              *** Initializing SOSCF ***
---------------------------------------S-O-S-C-F--------------------------------------
Iteration    Energy (Eh)           Delta-E    RMSDP     MaxDP     MaxGrad    Time(sec)
--------------------------------------------------------------------------------------
    6    -975.3191884809016301    -4.60e-04  1.28e-03  3.09e-03  2.67e-03     0.2
               *** Restarting incremental Fock matrix formation ***
    7    -975.3192781689790536    -8.97e-05  1.84e-03  4.13e-03  7.31e-04     0.2
    8    -975.3192889413833200    -1.08e-05  8.72e-04  2.66e-03  5.04e-04     0.1
    9    -975.3193046282246996    -1.57e-05  5.44e-04  1.76e-03  2.42e-04     0.1
   10    -975.3193042684963530     3.60e-07  3.22e-04  8.94e-04  2.54e-04     0.1
                 **** Energy Check signals convergence ****

               *****************************************************
               *                     SUCCESS                       *
               *           SCF CONVERGED AFTER  10 CYCLES          *
               *****************************************************

             **** ENERGY FILE WAS UPDATED (run.en.tmp) ****

----------------
TOTAL SCF ENERGY
----------------

Total Energy       :       -975.31930719901879 Eh          -26539.78761 eV

Components:
Nuclear Repulsion  :        284.69919890825366 Eh            7747.05906 eV
Electronic Energy  :      -1260.01850610727251 Eh          -34286.84666 eV
One Electron Energy:      -1919.08833241993875 Eh          -52221.04839 eV
Two Electron Energy:        659.06982631266624 Eh           17934.20173 eV

Virial components:
Potential Energy   :      -1948.98409402617017 Eh          -53034.55342 eV
Kinetic Energy     :        973.66478682715126 Eh           26494.76582 eV
Virial Ratio       :          2.00169927103686

DFT components:
N(Alpha)           :       31.999952641629 electrons
N(Beta)            :       31.999952641629 electrons
N(Total)           :       63.999905283258 electrons
E(X)               :      -76.144446611700 Eh       
E(C)               :       -2.186706411879 Eh       
E(XC)              :      -78.331153023580 Eh       

---------------
SCF CONVERGENCE
---------------

  Last Energy change         ...   -3.5973e-07  Tolerance :   1.0000e-06
  Last MAX-Density change    ...    8.9446e-04  Tolerance :   1.0000e-05
  Last RMS-Density change    ...    3.2234e-04  Tolerance :   1.0000e-06
  Last DIIS Error            ...    2.6700e-03  Tolerance :   1.0000e-05
  Last Orbital Gradient      ...    2.5389e-04  Tolerance :   5.0000e-05
  Last Orbital Rotation      ...    9.0889e-04  Tolerance :   5.0000e-05


----------------
ORBITAL ENERGIES
----------------

  NO   OCC          E(Eh)            E(eV) 
   0   2.0000     -55.424736     -1508.1838 
   1   2.0000     -55.421293     -1508.0901 
   2   2.0000     -55.402170     -1507.5697 
   3   2.0000     -55.395541     -1507.3893 
   4   2.0000      -4.008503      -109.0769 
   5   2.0000      -3.982736      -108.3758 
   6   2.0000      -3.976698      -108.2114 
   7   2.0000      -3.953474      -107.5795 
   8   2.0000      -2.632564       -71.6357 
   9   2.0000      -2.601669       -70.7950 
  10   2.0000      -2.599801       -70.7442 
  11   2.0000      -2.592852       -70.5551 
  12   2.0000      -2.586591       -70.3847 
  13   2.0000      -2.585029       -70.3422 
  14   2.0000      -2.584224       -70.3203 
  15   2.0000      -2.583567       -70.3024 
  16   2.0000      -2.577276       -70.1313 
  17   2.0000      -2.562367       -69.7255 
  18   2.0000      -2.558440       -69.6187 
  19   2.0000      -2.555202       -69.5306 
  20   2.0000      -0.511411       -13.9162 
  21   2.0000      -0.461872       -12.5682 
  22   2.0000      -0.426771       -11.6130 
  23   2.0000      -0.370806       -10.0902 
  24   2.0000      -0.346757        -9.4357 
  25   2.0000      -0.340320        -9.2606 
  26   2.0000      -0.320597        -8.7239 
  27   2.0000      -0.294145        -8.0041 
  28   2.0000      -0.271988        -7.4012 
  29   2.0000      -0.262749        -7.1498 
  30   2.0000      -0.253218        -6.8904 
  31   2.0000      -0.236172        -6.4266 
  32   0.0000      -0.138376        -3.7654 
  33   0.0000      -0.133604        -3.6355 
  34   0.0000      -0.093848        -2.5537 
  35   0.0000      -0.077469        -2.1080 
  36   0.0000      -0.053093        -1.4447 
  37   0.0000      -0.035531        -0.9668 
  38   0.0000      -0.020423        -0.5557 
  39   0.0000      -0.003662        -0.0996 
  40   0.0000      -0.002271        -0.0618 
  41   0.0000       0.009205         0.2505 
  42   0.0000       0.023913         0.6507 
*Only the first 10 virtual orbitals were printed.
-------
TIMINGS
-------

Total SCF time: 0 days 0 hours 0 min 2 sec 

Total time                  ....       2.327 sec
Sum of individual times     ....       2.147 sec  ( 92.3%)

SCF preparation             ....       0.617 sec  ( 26.5%)
Fock matrix formation       ....       1.204 sec  ( 51.7%)
  Startup                   ....       0.008 sec  (  0.6% of F)
  Split-RI-J                ....       0.358 sec  ( 29.7% of F)
  XC integration            ....       0.824 sec  ( 68.5% of F)
    XC Preparation          ....       0.000 sec  (  0.0% of XC)
    Basis function eval.    ....       0.210 sec  ( 25.5% of XC)
    Density eval.           ....       0.098 sec  ( 11.9% of XC)
    XC-Functional eval.     ....       0.038 sec  (  4.7% of XC)
    XC-Potential eval.      ....       0.101 sec  ( 12.3% of XC)
Diagonalization             ....       0.000 sec  (  0.0%)
Density matrix formation    ....       0.066 sec  (  2.8%)
Total Energy calculation    ....       0.025 sec  (  1.1%)
Population analysis         ....       0.000 sec  (  0.0%)
Orbital Transformation      ....       0.027 sec  (  1.2%)
Orbital Orthonormalization  ....       0.000 sec  (  0.0%)
DIIS solution               ....       0.142 sec  (  6.1%)
SOSCF solution              ....       0.066 sec  (  2.8%)
Finished LeanSCF after   2.3 sec

Maximum memory used throughout the entire LEANSCF-calculation: 6.7 MB


           ************************************************************
           *        Program running with 24 parallel MPI-processes    *
           *              working on a common directory               *
           ************************************************************

------------------------------------------------------------------------------
                         ORCA PROPERTY INTEGRAL CALCULATIONS
------------------------------------------------------------------------------

GBWName                                   ... run.gbw
Number of atoms                           ...     16
Number of basis functions                 ...     96
Max core memory                           ...   4096 MB

Dipole integrals                          ... YES
Quadrupole integrals                      ...  NO
Linear momentum integrals                 ...  NO
Angular momentum integrals                ...  NO
Higher moments length integrals           ...  NO
Higher moments velocity integrals         ...  NO
Kinetic energy integrals                  ...  NO
GIAO right hand sides                     ...  NO
GIAO dipole derivative integrals          ...  NO
SOC integrals                             ...  NO
EPR diamagnetic integrals (GIAO)          ...  NO
EPR gauge integrals                       ...  NO
Field gradient integrals                  ...  NO (   0 nuclei)
Spin-dipole/Fermi contact integrals       ...  NO (   0 nuclei)
Contact density integrals                 ...  NO (   0 nuclei)
Nucleus-orbit integrals                   ...  NO (   0 nuclei)
Geometric perturbations                   ...  NO (  16 nuclei)

Choice of electric origin   ... Center of mass
Position of electric origin ... (  0.5152, -1.7206,  3.9495) 
Choice of magnetic origin   ... GIAO
Position of magnetic origin ... (  0.0000,  0.0000,  0.0000) 

Calculating integrals                     ... Electric Dipole (Length)     done (  0.0 sec)

Property integrals calculated in   0.0 sec

Maximum memory used throughout the entire PROPINT-calculation: 7.8 MB


-------------------------------------------------------------------------------
                          DFT DISPERSION CORRECTION                            
                                                                               
                              DFTD3 V3.1  Rev 1                                
                          USING Becke-Johnson damping                          
-------------------------------------------------------------------------------
The PBE functional is recognized
Active option DFTDOPT                   ...         4   

molecular C6(AA) [au] = 5203.169399 


            DFT-D V3
 parameters
 s6 scaling factor         :     1.0000 
 a1 scaling factor         :     0.4289 
 s8 scaling factor         :     0.7875 
 a2 scaling factor         :     4.4407 
 ad hoc parameters k1-k3   :    16.0000     1.3333    -4.0000 

 Edisp/kcal,au: -8.791401714009  -0.014009988916 
 E6   /kcal   :  -5.519523032 
 E8   /kcal   :  -3.271878682 
 % E8         :  37.216803290 

-------------------------   ----------------
Dispersion correction           -0.014009989
-------------------------   ----------------


-------------------------   --------------------
FINAL SINGLE POINT ENERGY      -975.333317187935
-------------------------   --------------------



           ************************************************************
           *        Program running with 24 parallel MPI-processes    *
           *              working on a common directory               *
           ************************************************************
------------------------------------------------------------------------------
                         ORCA SCF GRADIENT CALCULATION
------------------------------------------------------------------------------

Nuc. rep. gradient        (SHARK) ... done (  0.0 sec)
HCore & Overlap gradient  (SHARK) ... done (  0.1 sec)
Split-RIJ-J gradient      (SHARK) ... done (  0.3 sec)
XC gradient                       ... done (  0.4 sec)
Dispersion correction             ... done (  0.1 sec)

-------------------
DISPERSION GRADIENT
-------------------

   1   Al  :   -0.000052924    0.000502164    0.000070433
   2   Al  :    0.000080231    0.000659011   -0.000437681
   3   H   :   -0.000039010   -0.000087319   -0.000149847
   4   H   :    0.000102468   -0.000050038    0.000056373
   5   H   :   -0.000232757   -0.000249319   -0.000258271
   6   H   :   -0.000104102    0.000112240    0.000036585
   7   H   :   -0.000089268    0.000046480    0.000167217
   8   H   :    0.000082345    0.000051818   -0.000154508
   9   Al  :    0.000054391   -0.000469257   -0.000153957
  10   H   :   -0.000025656   -0.000144637    0.000058771
  11   H   :   -0.000020470   -0.000164907   -0.000055874
  12   H   :    0.000039959    0.000164696    0.000060666
  13   Al  :    0.000053494   -0.000179306    0.000472866
  14   H   :   -0.000034646   -0.000019862    0.000160927
  15   H   :    0.000082931   -0.000027194    0.000143477
  16   H   :    0.000103014   -0.000144571   -0.000017175

Difference to translation invariance:
           :    0.0000000000    0.0000000000    0.0000000000

Difference to rotation invariance:
           :    0.0000000000   -0.0000000000    0.0000000000

Norm of the Dispersion gradient    ...    0.0013785502
RMS gradient                       ...    0.0001989766
MAX gradient                       ...    0.0006590108

------------------
CARTESIAN GRADIENT
------------------

   1   Al  :   -0.018399797   -0.015110889    0.011001999
   2   Al  :   -0.016436879   -0.031292293    0.020717336
   3   H   :    0.009945291    0.000847159   -0.002545673
   4   H   :   -0.022072977    0.013747488   -0.029330153
   5   H   :    0.037583604    0.022356244   -0.012888635
   6   H   :    0.006349317    0.004277112    0.007120432
   7   H   :   -0.004643466   -0.014332498    0.031364339
   8   H   :    0.007911395    0.003179468    0.010066301
   9   Al  :    0.991821959    0.070906910    0.300969288
  10   H   :    0.022565249   -0.015651831   -0.051067561
  11   H   :   -0.009092866   -0.044660621   -0.012810265
  12   H   :   -0.006294607    0.004633593   -0.003758917
  13   Al  :   -0.048694632    0.048365555    0.046407688
  14   H   :    0.068422365   -0.026195871   -0.079099025
  15   H   :   -0.007583052   -0.000938130    0.016184226
  16   H   :   -1.011380903   -0.020131396   -0.252331380

Difference to translation invariance:
           :    0.0000000000   -0.0000000000    0.0000000000

Difference to rotation invariance:
           :    0.0003643046    0.0002631374   -0.0002667434

Norm of the Cartesian gradient     ...    1.4826860539
RMS gradient                       ...    0.2140072981
MAX gradient                       ...    1.0113809025

-------
TIMINGS
-------

Total SCF gradient time     ....        0.972 sec

Densities                   ....       0.002 sec  (  0.2%)
One electron gradient       ....       0.057 sec  (  5.9%)
RI-J Coulomb gradient       ....       0.327 sec  ( 33.6%)
XC gradient                 ....       0.443 sec  ( 45.6%)

Maximum memory used throughout the entire SCFGRAD-calculation: 27.5 MB
------------------------------------------------------------------------------
                         ORCA GEOMETRY RELAXATION STEP
------------------------------------------------------------------------------

Reading the OPT-File                    .... done
Getting information on internals        .... done
Copying old internal coords+grads       .... done
Making the new internal coordinates     .... (2022 redundants) done
Validating the new internal coordinates .... (2022 redundants) done
Calculating the B-matrix                .... done
Calculating the G,G- and P matrices     .... done
Transforming gradient to internals      .... done
Projecting the internal gradient        .... done
Number of atoms                         ....  16
Number of internal coordinates          .... 149
Current Energy                          ....  -975.333317188 Eh
Current gradient norm                   ....     1.482686054 Eh/bohr
Maximum allowed component of the step   ....  0.300
Current trust radius                    ....  0.300
Evaluating the initial hessian          ....  (Almloef) done
Projecting the Hessian                  .... done
Forming the augmented Hessian           .... done
Diagonalizing the augmented Hessian     .... done
Last element of RFO vector              ....  0.932741867
Lowest eigenvalues of augmented Hessian:
 -0.223699806  0.013730558  0.022944754  0.024816291  0.035459356
Length of the computed step             ....  0.386543044
Warning: the length of the step is outside the trust region - taking restricted step instead
The input lambda is                     ....     0.012718
   iter:   5  x=   -0.042760  g=   53.767821 f(x)=     1.414630
   iter:  10  x=   -0.364926  g=    0.310041 f(x)=     0.012395
The output lambda is                    ....    -0.371130 (14 iterations)
The final length of the internal step   ....  0.300000000
Converting the step to Cartesian space:
 Initial RMS(Int)=    0.0245769576
Transforming coordinates:
 Iter   0:  RMS(Cart)=    0.0541684770 RMS(Int)=    0.0245019380
 Iter   5:  RMS(Cart)=    0.0000000174 RMS(Int)=    0.0000000114
done
Storing new coordinates                 .... done

                                .--------------------.
          ----------------------|Geometry convergence|-------------------------
          Item                value                   Tolerance       Converged
          ---------------------------------------------------------------------
          RMS gradient        0.0794931202            0.0010000000      NO
          MAX gradient        0.8718629268            0.0050000000      NO
          RMS step            0.0245769576            0.0200000000      NO
          MAX step            0.1644468009            0.0300000000      NO
          -------------------------------------------------------------------------
          ........................................................
          Max(Bonds)      0.0870      Max(Angles)    4.12
          Max(Dihed)        3.44      Max(Improp)    0.00
          ---------------------------------------------------------------------

The optimization has not yet converged - more geometry cycles are needed


    ---------------------------------------------------------------------------
                         Redundant Internal Coordinates
                            (Angstroem and degrees)

        Definition                    Value    dE/dq     Step     New-Value
    ----------------------------------------------------------------------------
     1. B(Al  1,Al  0)                3.1887  0.017705 -0.0183    3.1704   
     2. B(H   2,Al  1)                1.7014  0.000543 -0.0006    1.7008   
     3. B(H   3,Al  1)                1.8223  0.038948 -0.0380    1.7843   
     4. B(H   4,Al  1)                2.0858  0.027444 -0.0333    2.0525   
     5. B(H   5,Al  0)                1.5953 -0.002244  0.0016    1.5968   
     6. B(H   6,Al  0)                1.7025  0.003061 -0.0023    1.7002   
     7. B(H   7,Al  1)                1.6509  0.006891 -0.0053    1.6456   
     8. B(Al  8,H   2)                1.7011 -0.002767  0.0008    1.7019   
     9. B(Al  8,Al  1)                3.2024  0.002467 -0.0043    3.1980   
    10. B(H   9,Al  8)                1.5224 -0.038943  0.0252    1.5476   
    11. B(H  10,Al  8)                2.2781  0.237271 -0.0589    2.2192   
    12. B(H  11,Al  0)                1.5979 -0.004198  0.0029    1.6008   
    13. B(Al 12,H   9)                1.8822  0.017945 -0.0124    1.8698   
    14. B(Al 12,Al  8)                3.0079 -0.010680  0.0017    3.0096   
    15. B(Al 12,H   6)                1.7019 -0.012713  0.0119    1.7138   
    16. B(Al 12,Al  0)                3.1300 -0.004597  0.0071    3.1371   
    17. B(H  13,Al 12)                1.3615 -0.105443  0.0429    1.4043   
    18. B(H  14,Al 12)                1.6147  0.003229 -0.0023    1.6124   
    19. B(H  15,H  10)                2.7057 -0.214141 -0.0004    2.7053   
    20. B(H  15,Al  8)                0.8570 -0.871863  0.0870    0.9441   
    21. A(Al  1,Al  0,Al 12)           88.38  0.001460   -0.03     88.35   
    22. A(Al  1,Al  0,H  11)          119.22 -0.002832    0.28    119.50   
    23. A(H   5,Al  0,H   6)          109.27  0.001385   -0.21    109.06   
    24. A(H   5,Al  0,Al 12)          129.40 -0.001657    0.02    129.43   
    25. A(Al  1,Al  0,H   5)          117.47  0.004683   -0.57    116.91   
    26. A(Al  1,Al  0,H   6)           89.14  0.002810   -0.17     88.97   
    27. A(H   5,Al  0,H  11)          109.68 -0.004810    0.62    110.30   
    28. A(H   6,Al  0,H  11)          109.62  0.000724   -0.19    109.43   
    29. A(H   6,Al  0,Al 12)           23.16 -0.002739    0.18     23.33   
    30. A(H  11,Al  0,Al 12)           89.89  0.003317   -0.37     89.52   
    31. A(H   2,Al  1,Al  8)           19.75 -0.002284    0.23     19.98   
    32. A(H   3,Al  1,H   4)          113.11 -0.006070    0.53    113.65   
    33. A(H   2,Al  1,H   7)           91.82 -0.005598    0.63     92.45   
    34. A(Al  0,Al  1,H   3)          114.10  0.005158   -0.18    113.92   
    35. A(H   2,Al  1,H   4)          123.95  0.018768   -1.96    121.98   
    36. A(H   2,Al  1,H   3)          116.80  0.000783   -0.22    116.58   
    37. A(Al  0,Al  1,Al  8)           87.93 -0.006741    0.45     88.38   
    38. A(H   7,Al  1,Al  8)           73.16 -0.003856    0.48     73.64   
    39. A(H   4,Al  1,Al  8)          110.66  0.013444   -1.34    109.32   
    40. A(Al  0,Al  1,H   7)          104.41 -0.003953   -0.02    104.39   
    41. A(Al  0,Al  1,H   2)           89.40 -0.007237    0.71     90.12   
    42. A(H   4,Al  1,H   7)           73.12 -0.018356    2.29     75.41   
    43. A(Al  0,Al  1,H   4)           46.75  0.034189   -4.12     42.63   
    44. A(H   3,Al  1,Al  8)          134.68 -0.001524    0.07    134.75   
    45. A(H   3,Al  1,H   7)          131.00  0.004767   -0.40    130.61   
    46. A(Al  1,H   2,Al  8)          140.50  0.004198   -0.45    140.05   
    47. A(Al  0,H   6,Al 12)          133.68  0.003381   -0.15    133.53   
    48. A(H  10,Al  8,H  15)          110.96  0.076899    0.18    111.13   
    49. A(H  10,Al  8,Al 12)          133.51  0.001433   -0.07    133.44   
    50. A(H   9,Al  8,H  10)          107.77 -0.010852   -0.15    107.62   
    51. A(Al  1,Al  8,H  10)          126.14 -0.023559    0.03    126.17   
    52. A(Al 12,Al  8,H  15)           78.75 -0.040965    0.20     78.94   
    53. A(H   9,Al  8,H  15)          105.89 -0.029263    0.22    106.11   
    54. A(H   2,Al  8,H  15)          126.29 -0.035596    0.11    126.40   
    55. A(Al  1,Al  8,H  15)          106.54 -0.033499   -0.11    106.43   
    56. A(H   2,Al  8,H   9)           90.28  0.006958   -0.14     90.15   
    57. A(Al  1,Al  8,H   9)           97.20  0.006442   -0.17     97.03   
    58. A(Al  1,Al  8,H   2)           19.75 -0.001914    0.22     19.97   
    59. A(H   2,Al  8,H  10)          111.86 -0.026028   -0.29    111.57   
    60. A(H   9,Al  8,Al 12)           31.34  0.002499    0.00     31.34   
    61. A(H   2,Al  8,Al 12)           93.95  0.005470   -0.03     93.93   
    62. A(Al  1,Al  8,Al 12)           90.29  0.005098   -0.19     90.10   
    63. A(Al  8,H   9,Al 12)          123.79  0.004213   -0.62    123.17   
    64. A(Al  8,H  10,H  15)           17.21 -0.162846    1.78     18.99   
    65. A(Al  0,Al 12,H   6)           23.16 -0.000642   -0.03     23.14   
    66. A(H  13,Al 12,H  14)          106.92  0.001711   -0.04    106.89   
    67. A(H   9,Al 12,H  14)          116.85  0.003810   -0.35    116.50   
    68. A(Al  8,Al 12,H  14)          105.96  0.007346   -0.66    105.29   
    69. A(H   6,Al 12,H  14)          159.15 -0.002494    0.16    159.31   
    70. A(Al  0,Al 12,H  14)          139.53  0.000886   -0.20    139.33   
    71. A(H   9,Al 12,H  13)          119.85  0.008658   -0.93    118.92   
    72. A(Al  8,Al 12,H  13)          142.44 -0.001477   -0.01    142.43   
    73. A(H   6,Al 12,H  13)           63.39 -0.012456    1.36     64.75   
    74. A(Al  0,Al 12,H  13)           73.63 -0.015923    1.72     75.36   
    75. A(Al  8,Al 12,H   9)           24.87 -0.006712    0.62     25.49   
    76. A(H   6,Al 12,H   9)           83.26 -0.000340    0.01     83.26   
    77. A(Al  0,Al 12,H   9)           95.01 -0.002626    0.16     95.17   
    78. A(H   6,Al 12,Al  8)           90.20 -0.001466   -0.05     90.15   
    79. A(Al  0,Al 12,Al  8)           92.56 -0.001089   -0.11     92.45   
    80. A(Al  8,H  15,H  10)           51.84  0.085947   -1.96     49.88   
    81. D(H   2,Al  1,Al  0,H  11)    115.33  0.007319   -0.70    114.63   
    82. D(H   3,Al  1,Al  0,H   5)     11.14 -0.000175    0.08     11.22   
    83. D(H   4,Al  1,Al  0,H   5)    110.91 -0.003240   -0.21    110.70   
    84. D(H   2,Al  1,Al  0,Al 12)     26.36  0.002590   -0.25     26.11   
    85. D(H   2,Al  1,Al  0,H   6)      3.21  0.005394   -0.43      2.78   
    86. D(H   2,Al  1,Al  0,H   5)   -108.15  0.001383    0.01   -108.14   
    87. D(H   3,Al  1,Al  0,H  11)   -125.38  0.005761   -0.63   -126.01   
    88. D(H   3,Al  1,Al  0,H   6)    122.50  0.003836   -0.36    122.14   
    89. D(H   3,Al  1,Al  0,Al 12)    145.65  0.001032   -0.18    145.47   
    90. D(Al  8,H   2,Al  1,Al  0)    -85.53  0.000258    0.61    -84.91   
    91. D(Al  8,H   2,Al  1,H   3)    157.59 -0.001788    0.48    158.06   
    92. D(Al  8,H   2,Al  1,H   4)    -51.94  0.026226   -3.02    -54.95   
    93. D(Al  8,H   2,Al  1,H   7)     18.87 -0.003901    0.61     19.48   
    94. D(Al 12,H   6,Al  0,H   5)   -153.20  0.003317   -0.37   -153.58   
    95. D(Al 12,H   6,Al  0,Al  1)     87.88 -0.003054    0.34     88.22   
    96. D(Al 12,H   6,Al  0,H  11)    -32.98 -0.001281    0.14    -32.84   
    97. D(Al 12,Al  8,H   2,Al  1)     79.79 -0.001276   -0.37     79.42   
    98. D(H   9,Al  8,Al  1,H   7)    129.45 -0.004142    0.24    129.69   
    99. D(Al 12,Al  8,Al  1,Al  0)     -6.93 -0.005125    0.47     -6.46   
   100. D(H   9,Al  8,Al  1,H   4)     65.44  0.026862   -3.44     62.00   
   101. D(H  15,Al  8,H   2,Al  1)      0.85  0.043010   -0.59      0.27   
   102. D(H   9,Al  8,Al  1,H   3)    -98.89 -0.001856    0.19    -98.70   
   103. D(H   9,Al  8,Al  1,H   2)    -70.29 -0.000530   -0.34    -70.63   
   104. D(H  10,Al  8,H   2,Al  1)   -139.75 -0.011085   -0.64   -140.38   
   105. D(H   9,Al  8,Al  1,Al  0)     23.72 -0.002645    0.47     24.18   
   106. D(H   2,Al  8,Al  1,H   7)   -160.26 -0.003612    0.59   -159.68   
   107. D(H   9,Al  8,H   2,Al  1)    110.93  0.001542   -0.38    110.56   
   108. D(H   2,Al  8,Al  1,H   4)    135.73  0.027392   -3.10    132.63   
   109. D(H   2,Al  8,Al  1,H   3)    -28.60 -0.001326    0.53    -28.06   
   110. D(H   2,Al  8,Al  1,Al  0)     94.01 -0.002115    0.81     94.82   
   111. D(Al 12,H   9,Al  8,Al  1)    -78.60 -0.000273    0.07    -78.52   
   112. D(Al 12,H   9,Al  8,H  10)    149.74  0.028126    0.20    149.94   
   113. D(Al 12,H   9,Al  8,H  15)     30.94 -0.040627   -0.05     30.89   
   114. D(Al 12,H   9,Al  8,H   2)    -97.15  0.001441   -0.17    -97.32   
   115. D(H  15,H  10,Al  8,Al 12)    -94.32 -0.016594   -0.43    -94.76   
   116. D(H  15,H  10,Al  8,H   9)   -115.51 -0.000031   -0.28   -115.79   
   117. D(H  15,H  10,Al  8,H   2)    146.78  0.006722    0.05    146.83   
   118. D(H  15,H  10,Al  8,Al  1)    131.09  0.016729    0.08    131.18   
   119. D(Al  0,Al 12,H   9,Al  8)     85.27  0.001309   -0.46     84.81   
   120. D(H   6,Al 12,Al  8,H  10)   -114.77  0.040160   -0.22   -114.99   
   121. D(H   6,Al 12,Al  8,H  15)    136.93 -0.028058   -0.64    136.29   
   122. D(H   6,Al 12,Al  8,H   2)     10.69  0.006905   -0.75      9.94   
   123. D(H   6,Al 12,Al  8,Al  1)     30.12  0.004953   -0.56     29.56   
   124. D(Al  0,Al 12,Al  8,H  10)   -137.82  0.040856   -0.19   -138.02   
   125. D(Al  0,Al 12,Al  8,H   9)    -96.40  0.002586   -0.51    -96.90   
   126. D(Al  0,Al 12,Al  8,H   2)    -12.36  0.007601   -0.73    -13.09   
   127. D(Al  0,Al 12,Al  8,Al  1)      7.06  0.005649   -0.53      6.53   
   128. D(H  14,Al 12,H   6,Al  0)     45.34  0.016587   -2.41     42.92   
   129. D(H  13,Al 12,H   6,Al  0)    111.71 -0.011994    1.40    113.11   
   130. D(H   9,Al 12,H   6,Al  0)   -119.99  0.005838   -0.51   -120.49   
   131. D(Al  8,Al 12,H   6,Al  0)    -96.05 -0.000822    0.15    -95.89   
   132. D(H   9,Al 12,Al  0,H   5)     93.12  0.008420   -0.90     92.22   
   133. D(H   9,Al 12,Al  0,Al  1)    -31.91  0.001312   -0.09    -32.00   
   134. D(Al  0,Al 12,Al  8,H  15)    113.88 -0.027362   -0.62    113.26   
   135. D(Al  8,Al 12,Al  0,H  11)   -126.33 -0.002381    0.21   -126.12   
   136. D(Al  8,Al 12,Al  0,H   6)     84.52 -0.001361    0.12     84.64   
   137. D(Al  8,Al 12,Al  0,H   5)    117.93  0.001756   -0.30    117.63   
   138. D(H   6,Al 12,Al  8,H   9)    -73.34  0.001890   -0.53    -73.88   
   139. D(Al  8,Al 12,Al  0,Al  1)     -7.10 -0.005352    0.51     -6.59   
   140. D(H   6,Al 12,Al  0,H  11)    149.15 -0.001021    0.09    149.24   
   141. D(H   6,Al 12,Al  0,H   5)     33.42  0.003116   -0.42     32.99   
   142. D(H   6,Al 12,H   9,Al  8)    105.27  0.001906   -0.58    104.69   
   143. D(H   6,Al 12,Al  0,Al  1)    -91.61 -0.003992    0.39    -91.23   
   144. D(H  14,Al 12,H   9,Al  8)    -68.93 -0.001403    0.10    -68.83   
   145. D(H  13,Al 12,H   9,Al  8)    159.26 -0.019224    1.69    160.95   
   146. D(H  10,H  15,Al  8,Al 12)    132.49 -0.006044    0.01    132.50   
   147. D(H  10,H  15,Al  8,H   9)    116.67  0.009688    0.04    116.71   
   148. D(H  10,H  15,Al  8,H   2)   -140.89 -0.021106    0.10   -140.79   
   149. D(H  10,H  15,Al  8,Al  1)   -140.59 -0.006027   -0.10   -140.69   
    ----------------------------------------------------------------------------

Geometry step timings:
Preparation and reading OPT file:      0.000 s ( 0.224 %)
Internal coordinates            :      0.000 s ( 0.404 %)
B/P matrices and projection     :      0.004 s (20.583 %)
Hessian update/contruction      :      0.002 s ( 9.372 %)
Making the step                 :      0.011 s (59.817 %)
Converting the step to Cartesian:      0.000 s ( 2.352 %)
Storing new data                :      0.000 s ( 0.409 %)
Checking convergence            :      0.000 s ( 0.355 %)
Final printing                  :      0.001 s ( 6.473 %)
Total time                      :      0.018 s

Time for energy+gradient        :      9.668 s
Time for complete geometry iter :     10.419 s

         *************************************************************
         *                GEOMETRY OPTIMIZATION CYCLE   2            *
         *************************************************************
---------------------------------
CARTESIAN COORDINATES (ANGSTROEM)
---------------------------------
  Al    -0.312218    1.137696    2.765317
  Al     0.127605   -0.241303   -0.055340
  H     -0.148311   -1.767120    0.643567
  H     -1.030937    0.284758   -1.306250
  H      0.945321    1.309919    1.011375
  H     -1.662360    1.967474    2.961387
  H     -0.503377   -0.404462    3.455095
  H      1.751624   -0.493834   -0.137930
  Al     0.690128   -2.990703    1.478131
  H     -0.090730   -2.650045    2.770105
  H      0.052263   -5.011380    0.820582
  H      0.910067    1.890337    3.473901
  Al     0.590853   -1.545726    4.116340
  H     -0.299571   -0.967680    5.035653
  H      1.829109   -2.130059    4.967927
  H      1.603793   -2.982673    1.714371

----------------------------
CARTESIAN COORDINATES (A.U.)
----------------------------
  NO LB      ZA    FRAG     MASS         X           Y           Z
   0 Al   13.0000    0    26.982   -0.590006    2.149933    5.225691
   1 Al   13.0000    0    26.982    0.241139   -0.455997   -0.104577
   2 H     1.0000    0     1.008   -0.280267   -3.339373    1.216165
   3 H     1.0000    0     1.008   -1.948189    0.538116   -2.468455
   4 H     1.0000    0     1.008    1.786397    2.475388    1.911222
   5 H     1.0000    0     1.008   -3.141405    3.717988    5.596210
   6 H     1.0000    0     1.008   -0.951245   -0.764323    6.529183
   7 H     1.0000    0     1.008    3.310089   -0.933212   -0.260649
   8 Al   13.0000    0    26.982    1.304152   -5.651610    2.793263
   9 H     1.0000    0     1.008   -0.171454   -5.007859    5.234740
  10 H     1.0000    0     1.008    0.098763   -9.470137    1.550676
  11 H     1.0000    0     1.008    1.719778    3.572219    6.564721
  12 Al   13.0000    0    26.982    1.116551   -2.920998    7.778754
  13 H     1.0000    0     1.008   -0.566107   -1.828650    9.516006
  14 H     1.0000    0     1.008    3.456515   -4.025227    9.388021
  15 H     1.0000    0     1.008    3.030730   -5.636434    3.239692

--------------------------------
INTERNAL COORDINATES (ANGSTROEM)
--------------------------------
 Al     0   0   0     0.000000000000     0.00000000     0.00000000
 Al     1   0   0     3.170360563141     0.00000000     0.00000000
 H      2   1   0     1.700799117161    90.12081636     0.00000000
 H      2   1   3     1.784303518108   113.91725689   119.35348811
 H      2   1   3     2.052517786670    42.62115549   218.82695733
 H      1   2   3     1.596828306401   116.90854415   251.86185893
 H      1   2   3     1.700172490747    88.96960122     2.77995045
 H      2   1   3     1.645609084198   104.37754710   267.42163754
 Al     3   2   1     1.701949440444   140.04492707   275.07724043
 H      9   3   2     1.547573221061    90.14597025   110.55579313
 H      9   3   2     2.218643299714   111.58114297   219.62332386
 H      1   2   3     1.600793686705   119.49843544   114.62992814
 Al     7   1   2     1.713787503811   133.53430433    88.21572766
 H     13   7   1     1.404325447928    64.76287922   113.09180729
 H     13   7   1     1.612427556439   159.29740311    42.92252708
 H      9   3   2     0.943746991491   126.41012671     0.26049064

---------------------------
INTERNAL COORDINATES (A.U.)
---------------------------
 Al     0   0   0     0.000000000000     0.00000000     0.00000000
 Al     1   0   0     5.991113210120     0.00000000     0.00000000
 H      2   1   0     3.214044540249    90.12081636     0.00000000
 H      2   1   3     3.371844989017   113.91725689   119.35348811
 H      2   1   3     3.878696501809    42.62115549   218.82695733
 H      1   2   3     3.017568181992   116.90854415   251.86185893
 H      1   2   3     3.212860387939    88.96960122     2.77995045
 H      2   1   3     3.109750492627   104.37754710   267.42163754
 Al     3   2   1     3.216218336219   140.04492707   275.07724043
[...]
     44      -0.007977  -0.000614  -0.000009   0.001573   0.004283   0.036536
     45      -0.019998   0.125186   0.007495  -0.006034   0.033561  -0.026309
     46       0.004429   0.038027  -0.000006  -0.001857   0.005943  -0.004503
     47      -0.032352   0.013250   0.000224   0.001319   0.002885  -0.001953
                 42         43         44         45         46         47    
      0      -0.025219   0.002385   0.001462  -0.004074  -0.001700  -0.001987
      1       0.001235  -0.000864  -0.001320   0.001207   0.000069   0.004460
      2      -0.002692   0.000992   0.001873  -0.002084  -0.000107   0.009610
      3      -0.001421   0.007646  -0.023920  -0.035314  -0.007610   0.000270
      4       0.000415  -0.004355   0.005295   0.005696   0.001054   0.006952
      5      -0.003580   0.000439   0.000413   0.000971   0.000353   0.009083
      6      -0.005420  -0.011504  -0.003152  -0.004557  -0.006059  -0.008824
      7       0.070772   0.151144  -0.011021   0.042195   0.024671   0.138697
      8      -0.041512  -0.089424   0.007441  -0.024625  -0.016878  -0.070283
      9       0.136657  -0.049235   0.209596   0.281939   0.066590   0.118502
     10      -0.048299   0.013918  -0.073259  -0.101847  -0.021985  -0.027984
     11       0.097849  -0.034291   0.152877   0.204608   0.046960   0.104858
     12      -0.001026  -0.002007   0.003186  -0.003402   0.003293   0.109747
     13      -0.022984   0.008515  -0.033318  -0.008874  -0.011388  -0.425722
     14      -0.037462   0.018686  -0.061041  -0.020492  -0.022758  -0.798037
     15       0.422219  -0.021052  -0.034179   0.033904   0.014646  -0.128541
     16      -0.253867   0.010572   0.017031  -0.015503  -0.007562   0.082487
     17       0.052100  -0.002421   0.000149   0.003670   0.002369   0.007901
     18      -0.024811  -0.001638  -0.000831   0.003863   0.000604   0.008803
     19       0.274636   0.045850   0.067051  -0.084421   0.001908  -0.177082
     20      -0.138597  -0.024452  -0.034027   0.044549   0.000896   0.101371
     21      -0.109756  -0.182284   0.441117   0.669850   0.131105  -0.157129
     22       0.012935   0.018334  -0.043649  -0.067601  -0.014579   0.033619
     23       0.034678   0.055049  -0.134970  -0.207165  -0.036292   0.071203
     24       0.002457  -0.001126  -0.001937   0.008436  -0.038688   0.001685
     25       0.001282   0.017228  -0.004089   0.011330  -0.019144  -0.001949
     26       0.003906   0.004751   0.000361   0.002542  -0.006587   0.002579
     27       0.018315  -0.011450   0.015789  -0.009343  -0.005962   0.003119
     28      -0.071355   0.069803  -0.051944   0.049169   0.001093  -0.014799
     29      -0.120602   0.128605  -0.096396   0.089498   0.008492  -0.030759
     30      -0.021632  -0.363913   0.079225  -0.187671   0.203358  -0.002379
     31      -0.040364  -0.636786   0.140431  -0.336374   0.361406  -0.006185
     32      -0.009411  -0.187704   0.044158  -0.099458   0.106382  -0.002566
     33       0.221026  -0.046270  -0.018578   0.083492   0.025766   0.109386
     34       0.079342  -0.016084  -0.003551   0.029819   0.008360   0.051567
     35       0.108040  -0.022363  -0.005224   0.039823   0.012413   0.082136
     36      -0.012253   0.012140   0.031483  -0.016470  -0.007233  -0.001728
     37      -0.002829   0.000726   0.008290  -0.004019  -0.001625   0.003437
     38      -0.006711  -0.009253  -0.016107   0.007524   0.001740  -0.000413
     39      -0.217524  -0.179468  -0.442911   0.236062   0.054318   0.011896
     40      -0.084053  -0.067029  -0.159704   0.085268   0.019791   0.005098
     41       0.262700   0.210382   0.527757  -0.283135  -0.061629  -0.017786
     42       0.616454  -0.155248  -0.388390   0.184540   0.134611   0.002058
     43       0.089934  -0.022629  -0.056391   0.027118   0.017725  -0.003633
     44       0.040504  -0.011685  -0.031205   0.015400   0.006129  -0.000831
     45      -0.059221   0.460727  -0.050593  -0.019277   0.856146  -0.019531
     46      -0.009465   0.083510  -0.010529   0.000578   0.146435  -0.001392
     47      -0.005288   0.041823  -0.009226  -0.002329   0.077051  -0.005569


-----------
IR SPECTRUM
-----------

 Mode   freq       eps      Int      T**2         TX        TY        TZ
       cm**-1   L/(mol*cm) km/mol    a.u.
----------------------------------------------------------------------------
  8:     75.02   0.000269    1.36  0.001121  ( 0.031913 -0.000651  0.010088)
  9:     92.95   0.000044    0.22  0.000148  ( 0.011988 -0.001138 -0.001698)
 10:    122.00   0.000131    0.66  0.000336  ( 0.015357  0.009624 -0.002667)
 11:    145.59   0.000018    0.09  0.000039  (-0.002233  0.003689  0.004507)
 12:    171.17   0.000081    0.41  0.000148  (-0.008087  0.005947 -0.006865)
 13:    290.08   0.000859    4.34  0.000924  (-0.019423 -0.022815  0.005107)
 14:    307.60   0.000644    3.25  0.000653  (-0.002415 -0.017703 -0.018275)
 15:    348.63   0.004107   20.75  0.003676  ( 0.050588  0.032208 -0.008917)
 16:    367.32   0.000594    3.00  0.000504  (-0.017815  0.010065 -0.009258)
 17:    385.86   0.000335    1.69  0.000271  ( 0.002590  0.000927  0.016216)
 18:    415.37   0.000381    1.92  0.000286  ( 0.008614  0.011427  0.009010)
 19:    427.02   0.000065    0.33  0.000048  (-0.006115 -0.001613  0.002796)
 20:    435.68   0.000046    0.23  0.000033  (-0.002284 -0.004307 -0.003068)
 21:    490.26   0.000617    3.12  0.000393  (-0.006871 -0.015885  0.009664)
 22:    513.27   0.009293   46.96  0.005650  (-0.004253 -0.071823  0.021754)
 23:    534.55   0.011122   56.21  0.006493  ( 0.012411 -0.025405 -0.075454)
 24:    651.78   0.016248   82.11  0.007780  ( 0.027117 -0.080272 -0.024508)
 25:    667.98   0.162086  819.11  0.075723  (-0.058651  0.257342 -0.077834)
 26:    671.25   0.199784  1009.63  0.092879  (-0.023831  0.065330  0.296721)
 27:    699.85   0.014849   75.04  0.006621  (-0.054663 -0.048193 -0.036200)
 28:    715.19   0.064804  327.49  0.028277  (-0.031139  0.113653  0.119958)
 29:    722.16   0.072463  366.20  0.031313  ( 0.016682 -0.144643  0.100562)
 30:    738.75   0.002384   12.05  0.001007  (-0.006941  0.028814 -0.011335)
 31:    744.61   0.018823   95.12  0.007889  (-0.058680 -0.050051  0.044047)
 32:    797.80   0.008538   43.15  0.003340  ( 0.052157  0.024844 -0.001456)
 33:    956.62   0.012526   63.30  0.004086  ( 0.060815 -0.000251  0.019689)
 34:    992.98   0.006117   30.91  0.001922  (-0.042182  0.006707 -0.009908)
 35:   1015.99   0.041965  212.08  0.012890  (-0.106324 -0.038161  0.011344)
 36:   1759.71   0.055275  279.34  0.009802  ( 0.009624 -0.034577 -0.092272)
 37:   1844.24   0.173545  877.02  0.029366  (-0.023245  0.168119  0.023691)
 38:   1866.83   0.232204  1173.46  0.038816  ( 0.009593 -0.135630  0.142577)
 39:   1898.05   0.094255  476.32  0.015497  (-0.002792 -0.028143 -0.121230)
 40:   1920.98   0.009609   48.56  0.001561  (-0.010908  0.034588  0.015675)
 41:   1926.55   0.009526   48.14  0.001543  ( 0.030457 -0.012654  0.021336)
 42:   1933.66   0.018970   95.87  0.003062  (-0.050838 -0.019069  0.010646)
 43:   1943.54   0.008004   40.45  0.001285  ( 0.034900  0.006482 -0.005015)
 44:   1946.06   0.001815    9.17  0.000291  ( 0.007940  0.013718 -0.006309)
 45:   1947.57   0.034461  174.15  0.005522  (-0.068990  0.024424  0.012867)
 46:   1969.33   0.039222  198.21  0.006215  (-0.074021 -0.027110 -0.001037)
 47:   2000.41   0.154201  779.27  0.024055  (-0.018417  0.079573  0.131849)

* The epsilon (eps) is given for a Dirac delta lineshape.
** The dipole moment derivative (T) already includes vibrational overlap.

The first frequency considered to be a vibration is 8
The total number of vibrations considered is 40


--------------------------
THERMOCHEMISTRY AT 298.15K
--------------------------

Temperature         ...   298.15 K
Pressure            ...     1.00 atm
Total Mass          ...   120.02 AMU
Quasi RRHO          ...     True
Cut-Off Frequency   ...     1.00 cm^-1

Throughout the following assumptions are being made:
  (1) The electronic state is orbitally nondegenerate
  (2) There are no thermally accessible electronically excited states
  (3) Hindered rotations indicated by low frequency modes are not
      treated as such but are treated as vibrations and this may
      cause some error
  (4) All equations used are the standard statistical mechanics
      equations for an ideal gas
  (5) All vibrations are strictly harmonic

freq.      75.02  E(vib)   ...       0.49 
freq.      92.95  E(vib)   ...       0.47 
freq.     122.00  E(vib)   ...       0.44 
freq.     145.59  E(vib)   ...       0.41 
freq.     171.17  E(vib)   ...       0.38 
freq.     290.08  E(vib)   ...       0.27 
freq.     307.60  E(vib)   ...       0.26 
freq.     348.63  E(vib)   ...       0.23 
freq.     367.32  E(vib)   ...       0.21 
freq.     385.86  E(vib)   ...       0.20 
freq.     415.37  E(vib)   ...       0.18 
freq.     427.02  E(vib)   ...       0.18 
freq.     435.68  E(vib)   ...       0.17 
freq.     490.26  E(vib)   ...       0.15 
freq.     513.27  E(vib)   ...       0.13 
freq.     534.55  E(vib)   ...       0.13 
freq.     651.78  E(vib)   ...       0.08 
freq.     667.98  E(vib)   ...       0.08 
freq.     671.25  E(vib)   ...       0.08 
freq.     699.85  E(vib)   ...       0.07 
freq.     715.19  E(vib)   ...       0.07 
freq.     722.16  E(vib)   ...       0.07 
freq.     738.75  E(vib)   ...       0.06 
freq.     744.61  E(vib)   ...       0.06 
freq.     797.80  E(vib)   ...       0.05 
freq.     956.62  E(vib)   ...       0.03 
freq.     992.98  E(vib)   ...       0.02 
freq.    1015.99  E(vib)   ...       0.02 
freq.    1759.71  E(vib)   ...       0.00 
freq.    1844.24  E(vib)   ...       0.00 
freq.    1866.83  E(vib)   ...       0.00 
freq.    1898.05  E(vib)   ...       0.00 
freq.    1920.98  E(vib)   ...       0.00 
freq.    1926.55  E(vib)   ...       0.00 
freq.    1933.66  E(vib)   ...       0.00 
freq.    1943.54  E(vib)   ...       0.00 
freq.    1946.06  E(vib)   ...       0.00 
freq.    1947.57  E(vib)   ...       0.00 
freq.    1969.33  E(vib)   ...       0.00 
freq.    2000.41  E(vib)   ...       0.00 

------------
INNER ENERGY
------------

The inner energy is: U= E(el) + E(ZPE) + E(vib) + E(rot) + E(trans)
    E(el)   - is the total energy from the electronic structure calculation
              = E(kin-el) + E(nuc-el) + E(el-el) + E(nuc-nuc)
    E(ZPE)  - the the zero temperature vibrational energy from the frequency calculation
    E(vib)  - the the finite temperature correction to E(ZPE) due to population
              of excited vibrational states
    E(rot)  - is the rotational thermal energy
    E(trans)- is the translational thermal energy

Summary of contributions to the inner energy U:
Electronic energy                ...   -975.98028743 Eh
Zero point energy                ...      0.08532718 Eh      53.54 kcal/mol
Thermal vibrational correction   ...      0.00796435 Eh       5.00 kcal/mol
Thermal rotational correction    ...      0.00141627 Eh       0.89 kcal/mol
Thermal translational correction ...      0.00141627 Eh       0.89 kcal/mol
-----------------------------------------------------------------------
Total thermal energy                   -975.88416336 Eh


Summary of corrections to the electronic energy:
(perhaps to be used in another calculation)
Total thermal correction                  0.01079689 Eh       6.78 kcal/mol
Non-thermal (ZPE) correction              0.08532718 Eh      53.54 kcal/mol
-----------------------------------------------------------------------
Total correction                          0.09612407 Eh      60.32 kcal/mol


--------
ENTHALPY
--------

The enthalpy is H = U + kB*T
                kB is Boltzmann's constant
Total thermal energy              ...   -975.88416336 Eh 
Thermal Enthalpy correction       ...      0.00094421 Eh       0.59 kcal/mol
-----------------------------------------------------------------------
Total Enthalpy                    ...   -975.88321915 Eh


Note: Only C1 symmetry has been detected, increase convergence thresholds 
      if your molecule has a higher symmetry. Symmetry factor of 1.0 is   
      used for the rotational entropy correction. 
 

Note: Rotational entropy computed according to Herzberg 
Infrared and Raman Spectra, Chapter V,1, Van Nostrand Reinhold, 1945 
Point Group:  C1, Symmetry Number:   1  
Rotational constants in cm-1:     0.050667     0.048353     0.025937 

Vibrational entropy computed according to the QRRHO of S. Grimme
Chem.Eur.J. 2012 18 9955 using a reference frequency of 100.0 cm-1


-------
ENTROPY
-------

The entropy contributions are T*S = T*(S(el)+S(vib)+S(rot)+S(trans))
     S(el)   - electronic entropy
     S(vib)  - vibrational entropy
     S(rot)  - rotational entropy
     S(trans)- translational entropy
The entropies will be listed as multiplied by the temperature to get
units of energy

Electronic entropy                ...      0.00000000 Eh      0.00 kcal/mol
Vibrational entropy               ...      0.01341849 Eh      8.42 kcal/mol
Rotational entropy                ...      0.01407299 Eh      8.83 kcal/mol
Translational entropy             ...      0.01912974 Eh     12.00 kcal/mol
-----------------------------------------------------------------------
Final entropy term                ...      0.04662122 Eh     29.26 kcal/mol

In case the symmetry of your molecule has not been determined correctly
or in case you have a reason to use a different symmetry number we print 
out the resulting rotational entropy values for sn=1,12:

 non-linear molecules -----------------------------------
|  sn= 1 | S(rot)=       0.01407299 Eh      8.83 kcal/mol|
|  sn= 2 | S(rot)=       0.01341854 Eh      8.42 kcal/mol|
|  sn= 3 | S(rot)=       0.01303571 Eh      8.18 kcal/mol|
|  sn= 4 | S(rot)=       0.01276408 Eh      8.01 kcal/mol|
|  sn= 5 | S(rot)=       0.01255339 Eh      7.88 kcal/mol|
|  sn= 6 | S(rot)=       0.01238125 Eh      7.77 kcal/mol|
|  sn= 7 | S(rot)=       0.01223570 Eh      7.68 kcal/mol|
|  sn= 8 | S(rot)=       0.01210963 Eh      7.60 kcal/mol|
|  sn= 9 | S(rot)=       0.01199842 Eh      7.53 kcal/mol|
|  sn=10 | S(rot)=       0.01189894 Eh      7.47 kcal/mol|
|  sn=11 | S(rot)=       0.01180895 Eh      7.41 kcal/mol|
|  sn=12 | S(rot)=       0.01172679 Eh      7.36 kcal/mol|
 linear molecules ---------------------------------------
|  Dinfh | S(rot)=       0.00877403 Eh      5.51 kcal/mol|
|  Cinfv | S(rot)=       0.00942849 Eh      5.92 kcal/mol|
 --------------------------------------------------------


-------------------
GIBBS FREE ENERGY
-------------------

The Gibbs free energy is G = H - T*S

Total enthalpy                    ...   -975.88321915 Eh 
Total entropy correction          ...     -0.04662122 Eh    -29.26 kcal/mol
-----------------------------------------------------------------------
Final Gibbs free energy         ...   -975.92984037 Eh

For completeness - the Gibbs free energy minus the electronic energy
G-E(el)                           ...      0.05044706 Eh     31.66 kcal/mol


Maximum memory used throughout the entire PROP-calculation: 27.7 MB

--------------------------------
SUGGESTED CITATIONS FOR THIS RUN
--------------------------------

Below you find a list of papers that are relevant to this ORCA run
We neither can nor want to force you to cite these papers, but we appreciate if you do
You receive ORCA, which is the product of decades of hard work by many enthusiastic individuals, for free
The only thing we kindly ask in return is that you cite our papers,
We deeply appreciate it, if you show your appreciation for ORCA by not just citing the generic ORCA reference.

Please note that relegating all ORCA citations to the supporting information does *not* help us.
SI sections are not indexed - citations you put there will not count into any citation statistics
But we need these citations in order to attract the funding resources that allow us to do what we are doing

Therefore, if you are a happy ORCA user, please consider citing a few of the papers listed below in the main body of your paper

In addition to the list printed below, the program has created the file run.bibtex that contains the list in bibtex format
You can import this file easily into all common literature databanks and citation aid programs


List of essential papers. We consider these as the minimum necessary citations

  1. Neese, F.
     Software update: the ORCA program system, version 6.0
     WIRES Comput. Molec. Sci. 2025 15(1), e70019
     doi.org/10.1002/wcms.7019

List of papers to cite with high priority. The work reported in these papers was absolutely
necessary for this run to complete.
Our perspective: the developers of density functionals and basis sets usually get cited in chemistry papers
Good! But without the algorithms to do something with them, the functionals or basis sets would not do anything.
Hence, in our opinion, the algorithm design and method developments papers are equally worthy of getting cited

  1. Neese, F.
     An improvement of the resolution of the identity approximation for the formation of the Coulomb matrix
     J. Comp. Chem. 2003 24(14), 1740-1747
     doi.org/10.1002/jcc.10318
  2. Grimme, S.; Antony, J.; Ehrlich, S.; Krieg, H.
     A consistent and accurate ab initio parametrization of density functional dispersion correction (DFT-D) for the 94 elements H-Pu
     J. Chem. Phys. 2010 132 , 154104
     doi.org/10.1063/1.3382344
  3. Grimme, S.; Ehrlich, S.; Goerigk, L.
     Effect of the damping function in dispersion corrected density functional theory
     J. Comput. Chem. 2011 32(7), 1456-1465
     doi.org/10.1002/jcc.21759
  4. Bykov, D.; Petrenko, T.; Izsak, R.; Kossmann, S.; Becker, U.; Valeev, E.; Neese, F.
     Efficient implementation of the analytic second derivatives of Hartree-Fock and hybrid DFT energies: a detailed analysis of different approximations
     Molec. Phys. 2015 113 , 1961-1977
     doi.org/10.1080/00268976.2015.1025114
  5. Neese, F.
     The SHARK Integral Generation and Digestion System
     J. Comp. Chem. 2022 44(3), 381
     doi.org/10.1002/jcc.26942

List of suggested additional citations. These are papers that are important in the 'surrounding' of 
of this run, or papers that preceded the highly important papers. If you like your results we are grateful for a citation.

  1. Neese, F.
     The ORCA program system
     WIRES Comput. Molec. Sci. 2012 2(1), 73-78
     doi.org/10.1002/wcms.81
  2. Neese, F.
     Software update: the ORCA program system, version 4.0
     WIRES Comput. Molec. Sci. 2018 8(1), 1-6
     doi.org/10.1002/wcms.1327
  3. Neese, F.; Wennmohs, F.; Becker, U.; Riplinger, C.
     The ORCA quantum chemistry program package
     J. Chem. Phys. 2020 152(22), 224108
     doi.org/10.1063/5.0004608
  4. Neese, F.
     Software update: The ORCA program system—Version 5.0
     WIRES Comput. Molec. Sci. 2022 12(1), e1606
     doi.org/10.1002/wcms.1606

List of optional additional citations

  1. Neese, F.
     Approximate second-order SCF convergence for spin unrestricted wavefunctions
     Chem. Phys. Lett. 2000 325(1-3), 93-98
     doi.org/10.1016/s0009-2614(00)00662-x

Timings for individual modules:

Sum of individual times          ...      137.709 sec (=   2.295 min)
Startup calculation              ...       33.029 sec (=   0.550 min)  24.0 %
SCF iterations                   ...       49.918 sec (=   0.832 min)  36.2 %
Property integrals               ...       18.250 sec (=   0.304 min)  13.3 %
SCF Response                     ...        2.969 sec (=   0.049 min)   2.2 %
Property calculations            ...        6.267 sec (=   0.104 min)   4.6 %
SCF Gradient evaluation          ...       26.967 sec (=   0.449 min)  19.6 %
Geometry relaxation              ...        0.307 sec (=   0.005 min)   0.2 %
                             ****ORCA TERMINATED NORMALLY****
TOTAL RUN TIME: 0 days 0 hours 2 minutes 32 seconds 297 msec
