
                                 *****************
                                 * O   R   C   A *
                                 *****************

                                            #,                                       
                                            ###                                      
                                            ####                                     
                                            #####                                    
                                            ######                                   
                                           ########,                                 
                                     ,,################,,,,,                         
                               ,,#################################,,                 
                          ,,##########################################,,             
                       ,#########################################, ''#####,          
                    ,#############################################,,   '####,        
                  ,##################################################,,,,####,       
                ,###########''''           ''''###############################       
              ,#####''   ,,,,##########,,,,          '''####'''          '####       
            ,##' ,,,,###########################,,,                        '##       
           ' ,,###''''                  '''############,,,                           
         ,,##''                                '''############,,,,        ,,,,,,###''
      ,#''                                            '''#######################'''  
     '                                                          ''''####''''         
             ,#######,   #######,   ,#######,      ##                                
            ,#'     '#,  ##    ##  ,#'     '#,    #''#        ,####,    ,#,          
            ##       ##  ##   ,#'  ##            #'  '#       #'       ,# #          
            ##       ##  #######   ##           ,######,      #####,      #          
            '#,     ,#'  ##    ##  '#,     ,#' ,#      #,     #,   #      #          
             '#######'   ##     ##  '#######'  #'      '#     '####' #    #          



                #########################################################
                #                        -***-                          #
                #          Department of theory and spectroscopy        #
                #                                                       #
                #                      Frank Neese                      #
                #                                                       #
                #     Directorship, Architecture, Infrastructure        #
                #                    SHARK, DRIVERS                     #
                #        Core code/Algorithms in most modules           #
                #                                                       #
                #        Max Planck Institute fuer Kohlenforschung      #
                #                Kaiser Wilhelm Platz 1                 #
                #                 D-45470 Muelheim/Ruhr                 #
                #                      Germany                          #
                #                                                       #
                #                  All rights reserved                  #
                #                        -***-                          #
                #########################################################


                         Program Version 6.1.0  -  RELEASE   -
                                (GIT: $679e74b$)
                          ($2025-06-10 18:02:51 +0200$)


 With contributions from (in alphabetic order):
[Max-Planck-Institut fuer Kohlenforschung]                               
  Daniel Aravena         : Magnetic Suceptibility                        
  Michael Atanasov       : Ab Initio Ligand Field Theory (pilot matlab implementation)
  Alexander A. Auer      : GIAO ZORA, VPT2 properties, NMR spectrum      
  Ute Becker             : All parallelization in ORCA, NUMFREQ, NUMCALC 
  Giovanni Bistoni       : ED, misc. LED, open-shell LED, HFLD           
  Dmytro Bykov           : pre 5.0 version of the SCF Hessian            
  Marcos Casanova-Páez   : Triplet and SCS-CIS(D). UHF-(DLPNO)-IP/EA/STEOM-CCSD. UHF-CVS-IP/STEOM-CCSD   
  Vijay G. Chilkuri      : MRCI spin determinant printing, contributions to CSF-ICE 
  Pauline Colinet        : FMM embedding                                 
  Dipayan Datta          : RHF DLPNO-CCSD density                        
  Achintya Kumar Dutta   : EOM-CC, STEOM-CC                              
  Nicolas Foglia         : Exact transition moments, OPA infrastructure, MCD improvements    
  Dmitry Ganyushin       : Spin-Orbit,Spin-Spin,Magnetic field MRCI      
  Miquel Garcia-Rates    : C-PCM and meta-GGA Hessian, CCSD/C-PCM, Gaussian charge scheme 
  Tiago L. C. Gouveia    : GS-ROHF, GS-ROCIS                             
  Yang Guo               : DLPNO-NEVPT2, F12-NEVPT2, CIM, IAO-localization        
  Andreas Hansen         : Spin unrestricted coupled pair/coupled cluster methods 
  Ingolf Harden          : AUTO-CI MPn and infrastructure                
  Benjamin Helmich-Paris : MC-RPA, TRAH-(SCF,CASSCF), AVAS, COSX integrals, SCF dyn. polar., MC-PDFT, srDFT 
  Lee Huntington         : MR-EOM, pCC                                   
  Robert Izsak           : Overlap fitted RIJCOSX, COSX-SCS-MP3, EOM     
  Riya Kayal             : Wick's Theorem for AUTO-CI, AUTO-CI UHF-CCSDT 
  Emily Kempfer          : AUTO-CI RHF CISDT and CCSDT, approximate NEVPT4
  Christian Kollmar      : KDIIS, OOCD, Brueckner-CCSD(T), CCSD density, CASPT2, CASPT2-K, improved NEVPT2 
  Axel Koslowski         : Symmetry handling                             
  Simone Kossmann        : meta-GGA functionals, TD-DFT gradient, OOMP2, (MP2 Hessian; deprecated post 5.0) 
  Lucas Lang             : DCDCAS, Hyperfine gauge corrections, ICE-SOC+SSC
  Marvin Lechner         : AUTO-CI (C++ implementation), FIC-MRCC        
  Spencer Leger          : CASSCF response                               
  Dagmar Lenk            : GEPOL surface, SMD, ORCA-2-JSON               
  Dimitrios Liakos       : Extrapolation schemes; Compound Job, Property file
  Dimitrios Manganas     : Further ROCIS development; embedding schemes. LFT, Crystal Embedding 
  Dimitrios Pantazis     : SARC Basis sets                               
  Anastasios Papadopoulos: AUTO-CI, single reference methods and gradients 
  Taras Petrenko         : pre 6.0 DFT Hessian and TD-DFT gradient,  ECA, NRVS 
  Petra Pikulova         : Analytic Raman intensities                    
  Peter Pinski           : DLPNO-MP2, DLPNO-MP2 Gradient                 
  Shashank Vittal Rao    : ES-AILFT, MagRelax                            
  Christoph Reimann      : Effective Core Potentials                     
  Marius Retegan         : Local ZFS, SOC                                
  Christoph Riplinger    : Optimizer, TS searches, QM/MM, DLPNO-CCSD(T), (RO)-DLPNO pert. Triples 
  Michael Roemelt        : Original ROCIS implementation, recursive CI coupling coefficients
  Masaaki Saitow         : Open-shell DLPNO-CCSD energy and density      
  Barbara Sandhoefer     : DKH picture change effects                    
  Yorick L. A. Schmerwitz: GMF and freeze-and-release deltaSCF, NEB S-IDPP initial path                    
  Kantharuban Sivalingam : CASSCF convergence/infrastructure, NEVPT2, NEVPT3, NEVPT4(SD), FIC-MRCI and CEPA variants
  Bernardo de Souza      : ESD, SOC TD-DFT                               
  Georgi L. Stoychev     : AutoAux, RI-MP2 NMR, DLPNO-MP2 response, X2C  
  Van Anh Tran           : RI-MP2 g-tensors                              
  Willem Van den Heuvel  : Paramagnetic NMR                              
  Zikuan Wang            : NOTCH, Electric field optimization            
  Frank Wennmohs         : Technical directorship and infrastructure     
  Hang Xu                : AUTO-CI-Response properties                   
                                                                         
[FACCTs GmbH]                                                            
  Markus Bursch, Nicolas Foglia, Miquel Garcia-Rates, Ingolf Harden, Hagen Neugebauer, Anastasios Papadopoulos, 
  Christoph Riplinger, Bernardo de Souza, Georgi L. Stoychev                                                    
                                                                 
  APM, various basis sets, CI-OPT, improved COSX, DLPNO-Multilevel,           
  DOCKER, DRACO, updates on ESD, Fragmentator, GOAT, IRC, LR-CPCM, L-BFGS, MBIS, meta-GGA TD-DFT gradient, ML-optimized integration grids, 
  MM, NACMEs, nearIR, NEB, NEB-TS, NL-DFT gradient (VV10), 2- and 3-layer-ONIOM, interface openCOSMO-RS, QMMM,   
  Crystal-QMMM, RESP, rigid body optimization, SF, symmetry and pop. for TD-DFT, various functionals, SOLVATOR                                   
                                                                         
[Other institutions]                                                     
  V. Asgeirsson          : NEB                                           
  Christoph Bannwarth    : sTDA-DFT, sTD-DFT, PBEh-3c, B97-3c, D3        
  Giovanni Bistoni       : ETS/NOCV, ADLD/ADEX, COVALED                  
  Martin Brehm           : Molecular dynamics                            
  Ronald Cardenas        : ETS/NOCV                                      
  Martina Colucci        : COVALED                                       
  Sebastian Ehlert       : rSCAN, r2SCAN, r2SCAN-3c, D4, dhf basis sets  
  Marvin Friede          : D4 for Fr, Ra, Ac-Lr                          
  Lars Goerigk           : TD-DFT with DH, B97 family of functionals     
  Stefan Grimme          : VdW corrections, initial TS optimization, DFT functionals, gCP, sTDA/sTD-DF 
  Waldemar Hujo          : DFT-NL                                        
  H. Jonsson             : NEB                                           
  Holger Kruse           : gCP                                           
  Marcel Mueller         : wB97X-3c, vDZP basis set                      
  Hagen Neugebauer       : wr2SCAN, Native XTB                           
  Gianluca Regni         : ADLD/ADEX                                     
  Tobias Risthaus        : pre 6.0 range-separated hybrid DFT and stability analysis
  Lukas Wittmann         : regularized MP2, r2SCAN double-hybrids, wr2SCAN        
                                                                         
We gratefully acknowledge several colleagues who have allowed us to      
interface, adapt or use parts of their codes:                            
  Ed Valeev, F. Pavosevic, A. Kumar             : LibInt (2-el integral package), F12 methods 
  Garnet Chan, S. Sharma, J. Yang, R. Olivares  : DMRG                   
  Ulf Ekstrom                                   : XCFun DFT Library      
  Mihaly Kallay                                 : mrcc  (arbitrary order and MRCC methods)
  Frank Weinhold                                : gennbo (NPA and NBO analysis)           
  Simon Mueller                                 : openCOSMO-RS                            
  Christopher J. Cramer and Donald G. Truhlar   : smd solvation model                     
  S Lehtola, MJT Oliveira, MAL Marques          : LibXC Library                           
  Liviu Ungur et al                             : ANISO software                          


 Your calculation uses the libint2 library for the computation of 2-el integrals
 For citations please refer to: http://libint.valeyev.net

 Your ORCA version has been built with support for libXC version: 7.0.0
 For citations please refer to: https://libxc.gitlab.io

 This ORCA versions uses:
   CBLAS   interface :  Fast vector & matrix operations
   LAPACKE interface :  Fast linear algebra routines
   SCALAPACK package :  Parallel linear algebra routines
   Shared memory     :  Shared parallel matrices
   BLAS/LAPACK       :  OpenBLAS 0.3.29  USE64BITINT DYNAMIC_ARCH NO_AFFINITY Bulldozer SINGLE_THREADED
        Core in use  :  Bulldozer
   Copyright (c) 2011-2014, The OpenBLAS Project


  ***********************************
  * Starting time: Tue Aug 12 23:05:36 2025
  * Host name:     chromium02
  * Process ID:    172411
  * Working dir.:  /local/scratch/mehlhorn/61818
  ***********************************



***************************************
The coordinates will be read from file: start.xyz
***************************************


Your calculation utilizes the geometrical counterpoise correction gCP
Please cite in your paper:
H.Kruse, S. Grimme J.Chem.Phys., 136, (2012), 154101 
   

Your calculation utilizes the atom-pairwise dispersion correction
with the Becke-Johnson damping scheme (D3BJ)


Warning: RI is on but no J-basis has been assigned. Assigning Def2/J (nothing to worry about!)
================================================================================

cite the ECPs for Zr [Def2-ECP] as follows:
Ce-Yb(ecp-28): M. Dolg, H. Stoll, H.Preuss, J. Chem. Phys., 1989, 90, 1730-1734.
Y-Cd(ecp-28), Hf-Hg(ecp-46): D. Andrae,U. Haeussermann, M. Dolg, H. Stoll, H. Preuss, Theor. Chim. Acta, 1990, 77, 123-141.
In-Sb(ecp-28), Tl-Bi(ecp-46): B. Metz, H. Stoll, M. Dolg, J. Chem. Phys., 2000, 113, 2563-2569.
Te-Xe(ecp-28), Po-Rn(ecp-46): K. A. Peterson, D. Figgen, E. Goll, H. Stoll, M. Dolg, J. Chem. Phys., 2003, 119, 11113-11123.
Rb(ecp-28), Cs(ecp-46): T. Leininger, A. Nicklass, W. Kuechle, H. Stoll, M. Dolg, A. Bergner, Chem. Phys. Lett., 1996, 255, 274-280.
Sr(ecp-28), Ba(ecp-46): M. Kaupp, P. V. Schleyer, H. Stoll and H. Preuss, J. Chem. Phys., 1991, 94, 1360-1366.
La(ecp-46): M. Dolg, H. Stoll, A. Savin, H. Preuss, Theor. Chim. Acta, 1989, 75, 173-194.
Lu(ecp-28): X. Cao, M. Dolg, J. Chem. Phys., 2001, 115, 7348-7355.

ECP parameters for Zr [Def2-ECP] have been obtained from:
TURBOMOLE (7.0.2)

----- Orbital basis set information -----
Your calculation utilizes the basis: def2-SV(P)
   F. Weigend and R. Ahlrichs, Phys. Chem. Chem. Phys. 7, 3297 (2005).

----- AuxJ basis set information -----
Your calculation utilizes the auxiliary basis: def2/J
   H-Rn: F. Weigend, Phys. Chem. Chem. Phys. 8, 1057 (2006).
   Fr-Lr: K. Eichkorn, F. Weigend, O. Treutler, R. Ahlrichs; Theor. Chem. Acc. 97, 119 (1997).

================================================================================
                                        WARNINGS
                       Please study these warnings very carefully!
================================================================================


WARNING: Gradients are needed
  ===> : At least TightSCF should be used for SCF convergence

WARNING: Geometry Optimization
  ===> : Switching off AutoStart
         For restart on a previous wavefunction, please use MOREAD

================================================================================
                                       INPUT FILE
================================================================================
NAME = run.inp
|  1> # Geometry optimization for (AlH3)n cluster
|  2> 
|  3> %pal nprocs 24  end
|  4> 
|  5> %geom MaxIter 500 end
|  6> 
|  7> 
|  8> ! PBE def2-SV(P)
|  9> ! RKS	# closed shell for AlH3
| 10> ! D3    #  dispersion correction
| 11> ! gCP(DFT/SV(P))
| 12> ! Freq 	# Frequency analysis to check the stabiltity of the structures
| 13> 
| 14> ! NoPop # population analysis not necessary	
| 15> 
| 16> ! DEFGRID2
| 17> ! NormalSCF
| 18> ! SloppyOpt
| 19> 
| 20> ! SmallPrint
| 21> 
| 22> 
| 23> * xyzFile 0 1 start.xyz # only maingroup elements H and Al so there should be no net spin
| 24> 
| 25>                          ****END OF INPUT****
================================================================================

                       *****************************
                       * Geometry Optimization Run *
                       *****************************

Geometry optimization settings:
Update method            Update   .... BFGS
Choice of coordinates    CoordSys .... (2022) Redundant Internals
Initial Hessian          InHess   .... Almloef's Model
Max. no of cycles        MaxIter  .... 500

Convergence Tolerances:
Energy Change            TolE     ....  8.0000e-05 Eh
Max. Gradient            TolMAXG  ....  5.0000e-03 Eh/bohr
RMS Gradient             TolRMSG  ....  1.0000e-03 Eh/bohr
Max. Displacement        TolMAXD  ....  3.0000e-02 bohr
RMS Displacement         TolRMSD  ....  2.0000e-02 bohr
Strict Convergence                .... False

------------------------------------------------------------------------------
                        ORCA OPTIMIZATION COORDINATE SETUP
------------------------------------------------------------------------------

The optimization will be done in redundant internal coordinates (2022)
Making redundant internal coordinates   ...  (2022 redundants) done
Evaluating the initial hessian          ...  (Almloef) done
Evaluating the coordinates              ...  done
Calculating the B-matrix                .... done
Calculating the G-matrix                .... done
The number of degrees of freedom        ....  793

    -----------------------------------------------------------------
                    Redundant Internal Coordinates


    -----------------------------------------------------------------
         Definition                    Initial Value    Approx d2E/dq
    -----------------------------------------------------------------
      1. B(Zr  2,Zr  1)                  3.4276         0.035901   
      2. B(Zr  3,Zr  0)                  3.4319         0.035340   
      3. B(Zr  4,Zr  3)                  3.4032         0.039269   
      4. B(Zr  4,Zr  1)                  3.3733         0.043833   
      5. B(Zr  5,Zr  2)                  3.4110         0.038165   
      6. B(Zr  5,Zr  0)                  3.3812         0.042583   
      7. B(O   6,Zr  3)                  2.1061         0.407859   
      8. B(O   6,Zr  5)                  2.1603         0.334237   
      9. B(O   6,Zr  0)                  2.0832         0.443576   
     10. B(O   7,Zr  1)                  2.0807         0.447765   
     11. B(O   7,Zr  2)                  2.0960         0.423270   
     12. B(O   7,Zr  4)                  2.1530         0.343253   
     13. B(O   8,Zr  1)                  2.1626         0.331426   
     14. B(O   8,Zr  5)                  2.1734         0.318500   
     15. B(O   8,Zr  2)                  2.1458         0.352486   
     16. B(O   9,Zr  3)                  2.1474         0.350437   
     17. B(O   9,Zr  0)                  2.1599         0.334722   
     18. B(O   9,Zr  4)                  2.1739         0.317898   
     19. B(O  10,Zr  3)                  2.0652         0.473928   
     20. B(O  10,Zr  4)                  2.1109         0.400751   
     21. B(O  10,Zr  1)                  2.1155         0.393954   
     22. B(O  11,Zr  5)                  2.1100         0.402074   
     23. B(O  11,Zr  2)                  2.0758         0.455923   
     24. B(O  11,Zr  0)                  2.1258         0.379327   
     25. B(O  12,Zr  0)                  1.9913         0.621737   
     26. B(O  13,Zr  0)                  1.9911         0.622305   
     27. B(O  14,Zr  0)                  2.0699         0.465944   
     28. B(O  15,Zr  0)                  1.9884         0.628428   
     29. B(O  16,Zr  1)                  1.9829         0.641252   
     30. B(O  17,Zr  1)                  2.0726         0.461337   
     31. B(O  18,Zr  1)                  1.9868         0.632238   
     32. B(O  19,Zr  1)                  1.9926         0.618769   
     33. B(O  20,Zr  2)                  1.9718         0.668114   
     34. B(O  21,Zr  2)                  2.0601         0.482914   
     35. B(O  22,Zr  2)                  1.9841         0.638487   
     36. B(O  23,Zr  2)                  2.0581         0.486588   
     37. B(O  24,Zr  3)                  2.0525         0.496574   
     38. B(O  25,Zr  3)                  1.9851         0.636161   
     39. B(O  26,Zr  3)                  2.0587         0.485409   
     40. B(O  27,Zr  3)                  1.9748         0.660663   
     41. B(O  28,Zr  4)                  1.9768         0.655950   
     42. B(O  29,Zr  4)                  2.0247         0.550049   
     43. B(O  30,Zr  4)                  1.9886         0.627933   
     44. B(O  31,Zr  4)                  2.0710         0.464046   
     45. B(O  32,Zr  5)                  2.0724         0.461555   
     46. B(O  33,Zr  5)                  1.9860         0.634096   
     47. B(O  34,Zr  5)                  2.0251         0.549144   
     48. B(O  35,Zr  5)                  1.9780         0.652907   
     49. B(C  36,O  33)                  1.3019         0.773455   
     50. B(C  36,O  12)                  1.3012         0.775390   
     51. B(C  37,O  25)                  1.3014         0.774735   
     52. B(C  37,O  13)                  1.3016         0.774424   
     53. B(C  38,O  21)                  1.2971         0.787315   
     54. B(C  38,O  14)                  1.2967         0.788466   
     55. B(C  39,O  29)                  1.2952         0.792766   
     56. B(C  39,O  15)                  1.2948         0.793982   
     57. B(C  40,O  34)                  1.2949         0.793527   
     58. B(C  40,O  16)                  1.2949         0.793560   
     59. B(C  41,O  17)                  1.2968         0.788216   
     60. B(C  41,O  26)                  1.2968         0.788072   
     61. B(C  42,O  22)                  1.3009         0.776196   
     62. B(C  42,O  18)                  1.3009         0.776340   
     63. B(C  43,O  19)                  1.3011         0.775701   
     64. B(C  43,O  30)                  1.3022         0.772632   
     65. B(C  44,O  20)                  1.2984         0.783558   
     66. B(C  44,O  35)                  1.2984         0.783455   
     67. B(C  45,O  31)                  1.2985         0.783186   
     68. B(C  45,O  23)                  1.3004         0.777783   
     69. B(C  46,O  32)                  1.2985         0.783131   
     70. B(C  46,O  24)                  1.3005         0.777500   
     71. B(C  47,O  27)                  1.2985         0.783269   
     72. B(C  47,O  28)                  1.2985         0.783221   
     73. B(H  48,C  41)                  1.0848         0.366991   
     74. B(H  49,C  42)                  1.0913         0.358366   
     75. B(H  50,C  38)                  1.0849         0.366888   
     76. B(H  51,C  37)                  1.0916         0.357955   
     77. B(H  52,C  43)                  1.0923         0.357087   
     78. B(H  53,C  47)                  1.0899         0.360251   
     79. B(H  54,C  39)                  1.0861         0.365293   
     80. B(H  55,C  45)                  1.0868         0.364385   
     81. B(H  56,C  40)                  1.0862         0.365163   
     82. B(H  57,C  46)                  1.0870         0.364056   
     83. B(H  58,C  36)                  1.0922         0.357226   
     84. B(H  59,C  44)                  1.0899         0.360288   
     85. B(Al 60,O  17)                  3.2485         0.010000   
     86. B(Al 61,Al 60)                  3.3164         0.025908   
     87. B(Al 61,H  48)                  3.5368         0.010000   
     88. B(Al 61,H  56)                  3.5238         0.010000   
     89. B(Al 61,O  17)                  3.4191         0.010000   
     90. B(Al 61,O  16)                  3.2901         0.010000   
     91. B(H  62,O  16)                  2.8492         0.010000   
     92. B(H  62,H  56)                  3.0178         0.010000   
     93. B(H  62,Al 61)                  1.6698         0.299892   
     94. B(H  62,C  40)                  3.3787         0.010000   
     95. B(H  63,O  17)                  3.0769         0.010000   
     96. B(H  63,C  41)                  3.0202         0.010000   
     97. B(H  63,H  56)                  2.8767         0.010000   
     98. B(H  63,O  16)                  2.8550         0.010000   
     99. B(H  63,H  48)                  2.8782         0.010000   
    100. B(H  63,Al 61)                  1.5963         0.392843   
    101. B(H  63,C  40)                  3.1575         0.010000   
    102. B(H  64,H  48)                  3.0034         0.010000   
    103. B(H  64,O  17)                  2.8636         0.010000   
    104. B(H  64,Al 61)                  1.6696         0.300139   
    105. B(H  64,Al 60)                  1.6694         0.300370   
    106. B(H  64,C  41)                  3.3734         0.010000   
    107. B(H  65,C  43)                  2.9855         0.010000   
    108. B(H  65,H  48)                  2.9474         0.010000   
    109. B(H  65,O  17)                  2.8184         0.010000   
    110. B(H  65,H  52)                  2.8007         0.010000   
    111. B(H  65,Al 60)                  1.5963         0.392919   
    112. B(H  65,O  19)                  3.2841         0.010000   
    113. B(H  65,C  41)                  3.2150         0.010000   
    114. B(H  66,O  19)                  2.9740         0.010000   
    115. B(H  66,Al 60)                  1.6689         0.300867   
    116. B(H  66,C  43)                  3.5303         0.010000   
    117. B(H  66,H  52)                  3.3165         0.010000   
    118. B(H  67,Al 61)                  1.5955         0.393972   
    119. B(Al 68,H  62)                  1.6698         0.299861   
    120. B(Al 68,Al 61)                  3.3191         0.025653   
    121. B(Al 68,O  16)                  3.3570         0.010000   
    122. B(Al 68,O  18)                  3.2339         0.010000   
    123. B(H  69,O  18)                  2.7892         0.010000   
    124. B(H  69,Al 68)                  1.6698         0.299896   
    125. B(H  69,C  42)                  3.5304         0.010000   
    126. B(H  69,H  49)                  3.3331         0.010000   
    127. B(H  70,C  40)                  3.0671         0.010000   
    128. B(H  70,H  56)                  3.0239         0.010000   
    129. B(H  70,O  16)                  2.9423         0.010000   
    130. B(H  70,O  18)                  2.7213         0.010000   
    131. B(H  70,Al 68)                  1.5973         0.391478   
    132. B(H  70,H  49)                  3.4850         0.010000   
    133. B(H  70,C  42)                  3.4057         0.010000   
    134. B(H  71,Al 60)                  1.5956         0.393841   
    135. B(Al 72,H  69)                  1.6696         0.300130   
    136. B(Al 72,Al 68)                  3.3189         0.025674   
    137. B(Al 72,H  66)                  1.6691         0.300664   
    138. B(Al 72,Al 60)                  3.3131         0.026223   
    139. B(Al 72,O  18)                  3.3530         0.010000   
    140. B(Al 72,O  19)                  3.3029         0.010000   
    141. B(H  73,C  42)                  3.0379         0.010000   
    142. B(H  73,O  18)                  2.9625         0.010000   
    143. B(H  73,H  49)                  2.8075         0.010000   
    144. B(H  73,O  19)                  2.7607         0.010000   
    145. B(H  73,Al 72)                  1.5967         0.392270   
    146. B(H  73,H  52)                  3.5107         0.010000   
    147. B(H  74,Al 72)                  1.5957         0.393728   
    148. B(H  75,Al 68)                  1.5955         0.393988   
    149. A(Zr  5,Zr  0,O  11)           36.8774         0.337544   
    150. A(O   6,Zr  0,O  14)          127.6487         0.484311   
    151. A(O  12,Zr  0,O  13)           81.5054         0.544588   
    152. A(Zr  3,Zr  0,O   9)           37.0520         0.320623   
    153. A(Zr  5,Zr  0,O  12)           73.6298         0.366954   
    154. A(O   6,Zr  0,O  11)           66.0139         0.466331   
    155. A(O  13,Zr  0,O  15)           85.6920         0.545693   
    156. A(O   9,Zr  0,O  14)          137.2385         0.459904   
    157. A(O  11,Zr  0,O  12)          100.7470         0.496298   
    158. A(Zr  3,Zr  0,O  12)          105.6410         0.355470   
    159. A(O  11,Zr  0,O  13)          157.7911         0.496382   
    160. A(Zr  3,Zr  0,O  11)           86.3096         0.327275   
    161. A(Zr  5,Zr  0,O  14)           89.7348         0.349387   
    162. A(O  13,Zr  0,O  14)          131.7933         0.515794   
    163. A(O   6,Zr  0,O  12)           81.3363         0.510981   
    164. A(Zr  5,Zr  0,O   6)           37.9728         0.346504   
    165. A(O  11,Zr  0,O  14)           69.9480         0.470556   
    166. A(O   6,Zr  0,O  15)          142.6084         0.512004   
    167. A(O   9,Zr  0,O  13)           76.7279         0.485009   
    168. A(O  14,Zr  0,O  15)           76.5667         0.516741   
    169. A(Zr  5,Zr  0,O  15)          143.3088         0.367629   
    170. A(O   9,Zr  0,O  11)           88.6811         0.443034   
    171. A(O   6,Zr  0,O  13)           92.7961         0.511068   
    172. A(O   9,Zr  0,O  12)          141.3425         0.484927   
    173. A(O   6,Zr  0,O   9)           68.3892         0.455797   
    174. A(O  11,Zr  0,O  15)          106.8361         0.497286   
    175. A(Zr  3,Zr  0,Zr  5)           70.6874         0.251607   
    176. A(O  12,Zr  0,O  15)          134.8977         0.545599   
    177. A(Zr  3,Zr  0,O  15)          111.0244         0.356116   
    178. A(O   9,Zr  0,O  15)           74.9553         0.485888   
    179. A(Zr  5,Zr  0,O  13)          126.6755         0.367012   
    180. A(O  12,Zr  0,O  14)           80.4234         0.515706   
    181. A(Zr  3,Zr  0,O  14)          156.2452         0.338629   
    182. A(Zr  3,Zr  0,O  13)           71.9295         0.355525   
    183. A(Zr  3,Zr  0,O   6)           35.2149         0.335864   
    184. A(Zr  5,Zr  0,O   9)           94.4587         0.330605   
    185. A(Zr  4,Zr  1,O  19)           73.4497         0.368479   
    186. A(O   8,Zr  1,O  16)           74.9061         0.486814   
    187. A(Zr  2,Zr  1,O   8)           37.1219         0.320930   
    188. A(O   7,Zr  1,O  18)           93.4806         0.513485   
    189. A(Zr  4,Zr  1,O   8)           94.8656         0.331649   
    190. A(O  10,Zr  1,O  17)           69.8926         0.472973   
    191. A(O   8,Zr  1,O  19)          141.1114         0.483614   
    192. A(O  10,Zr  1,O  19)          100.4420         0.499356   
    193. A(Zr  4,Zr  1,O  10)           36.9997         0.341329   
    194. A(Zr  2,Zr  1,O  10)           86.5365         0.330182   
    195. A(Zr  4,Zr  1,O  16)          143.1688         0.370745   
    196. A(O  16,Zr  1,O  17)           76.5934         0.517736   
    197. A(Zr  2,Zr  1,O  19)          105.5237         0.356132   
    198. A(O  10,Zr  1,O  16)          106.6042         0.502684   
    199. A(Zr  4,Zr  1,O  17)           89.8208         0.350510   
    200. A(O  16,Zr  1,O  18)           85.5313         0.549433   
    201. A(Zr  2,Zr  1,Zr  4)           70.5466         0.253260   
    202. A(O   8,Zr  1,O  18)           76.5308         0.485542   
    203. A(O  10,Zr  1,O  18)          158.6713         0.501361   
    204. A(O  17,Zr  1,O  19)           80.0446         0.514286   
    205. A(O   7,Zr  1,O  19)           81.4542         0.511422   
    206. A(O  17,Zr  1,O  18)          130.9431         0.516364   
    207. A(O   8,Zr  1,O  17)          137.9756         0.458243   
    208. A(O   7,Zr  1,O   8)           68.3968         0.455755   
    209. A(O   7,Zr  1,O  10)           66.1115         0.470386   
    210. A(Zr  2,Zr  1,O  18)           72.5790         0.357437   
    211. A(Zr  4,Zr  1,O   7)           37.9272         0.348748   
    212. A(Zr  4,Zr  1,O  18)          127.1277         0.369844   
    213. A(Zr  2,Zr  1,O  16)          111.2143         0.358299   
    214. A(O   7,Zr  1,O  16)          142.4173         0.514848   
    215. A(O   7,Zr  1,O  17)          127.6904         0.484262   
    216. A(O   8,Zr  1,O  10)           89.5344         0.445280   
    217. A(Zr  2,Zr  1,O  17)          156.4258         0.338957   
    218. A(O  18,Zr  1,O  19)           81.5762         0.545729   
    219. A(O  16,Zr  1,O  19)          135.0722         0.547195   
    220. A(Zr  2,Zr  1,O   7)           34.9964         0.337274   
    221. A(O   7,Zr  2,O   8)           68.4433         0.456200   
    222. A(O  20,Zr  2,O  22)           83.0944         0.554765   
    223. A(Zr  5,Zr  2,O   8)           38.1264         0.327465   
    224. A(O  20,Zr  2,O  21)           81.5355         0.526236   
    225. A(O  20,Zr  2,O  23)          135.6976         0.526987   
    226. A(O  21,Zr  2,O  23)           77.7728         0.495960   
    227. A(O  22,Zr  2,O  23)           82.6740         0.522514   
    228. A(Zr  5,Zr  2,O  21)           94.5215         0.345077   
    229. A(Zr  1,Zr  2,Zr  5)           70.4109         0.248192   
    230. A(Zr  5,Zr  2,O   7)           89.9020         0.337549   
    231. A(Zr  5,Zr  2,O  23)          145.6866         0.345517   
    232. A(Zr  1,Zr  2,O   8)           37.4616         0.324186   
    233. A(O   7,Zr  2,O  20)          146.3049         0.513383   
    234. A(O  11,Zr  2,O  20)           97.2377         0.520581   
    235. A(O  11,Zr  2,O  21)           71.1066         0.490009   
    236. A(Zr  1,Zr  2,O   7)           34.7039         0.334132   
    237. A(Zr  5,Zr  2,O  11)           35.7573         0.341765   
    238. A(Zr  5,Zr  2,O  22)          123.8057         0.361786   
    239. A(O   8,Zr  2,O  11)           67.6262         0.462428   
    240. A(O  21,Zr  2,O  22)          132.3312         0.521771   
    241. A(O  11,Zr  2,O  22)          155.8706         0.516174   
    242. A(O   7,Zr  2,O  22)           81.5873         0.509049   
    243. A(O   8,Zr  2,O  23)          139.7263         0.467971   
    244. A(O   8,Zr  2,O  22)           88.6937         0.492006   
    245. A(O   7,Zr  2,O  23)           71.3914         0.483997   
    246. A(O   7,Zr  2,O  11)           85.2290         0.478220   
    247. A(Zr  1,Zr  2,O  22)           71.8464         0.358036   
    248. A(O   7,Zr  2,O  21)          130.0793         0.483320   
    249. A(Zr  1,Zr  2,O  23)          103.1482         0.341990   
    250. A(Zr  1,Zr  2,O  11)           85.8463         0.338290   
    251. A(O   8,Zr  2,O  20)           81.4018         0.496164   
    252. A(Zr  5,Zr  2,O  20)           74.1817         0.364600   
    253. A(Zr  1,Zr  2,O  21)          154.9991         0.341557   
    254. A(Zr  1,Zr  2,O  20)          111.7188         0.360812   
    255. A(O  11,Zr  2,O  23)          112.0700         0.490697   
    256. A(O   8,Zr  2,O  21)          132.5396         0.467321   
    257. A(O  24,Zr  3,O  25)           83.1859         0.524152   
    258. A(O   6,Zr  3,O  10)           85.4182         0.478365   
    259. A(O   9,Zr  3,O  10)           67.6606         0.465219   
    260. A(Zr  4,Zr  3,O  10)           35.8685         0.345642   
    261. A(O   6,Zr  3,O  26)          132.3859         0.480480   
    262. A(O   6,Zr  3,O  24)           71.5664         0.482500   
    263. A(Zr  0,Zr  3,O   6)           34.7773         0.331218   
    264. A(O  10,Zr  3,O  26)           71.3287         0.494012   
    265. A(Zr  4,Zr  3,O  24)          143.5674         0.348367   
    266. A(O   9,Zr  3,O  27)           80.4833         0.494597   
    267. A(O   6,Zr  3,O  27)          144.3470         0.508769   
    268. A(Zr  4,Zr  3,O   9)           38.3204         0.328692   
    269. A(O  25,Zr  3,O  26)          131.2444         0.521918   
    270. A(O  24,Zr  3,O  26)           77.8524         0.498313   
    271. A(Zr  0,Zr  3,Zr  4)           70.7562         0.248653   
    272. A(Zr  4,Zr  3,O  26)           93.5773         0.347036   
    273. A(Zr  0,Zr  3,O  26)          156.3716         0.340952   
    274. A(Zr  4,Zr  3,O   6)           90.2270         0.337067   
    275. A(Zr  4,Zr  3,O  25)          125.6701         0.363325   
    276. A(O   6,Zr  3,O  25)           80.4654         0.505193   
    277. A(Zr  0,Zr  3,O  25)           71.8926         0.356857   
    278. A(O  10,Zr  3,O  24)          109.4664         0.496102   
    279. A(O   9,Zr  3,O  24)          139.7855         0.469215   
    280. A(Zr  0,Zr  3,O   9)           37.3040         0.323041   
    281. A(O   9,Zr  3,O  26)          131.6873         0.467263   
    282. A(Zr  4,Zr  3,O  27)           74.2339         0.365682   
    283. A(Zr  0,Zr  3,O  24)          103.9708         0.342252   
    284. A(Zr  0,Zr  3,O  10)           86.1705         0.339590   
    285. A(O  10,Zr  3,O  27)           98.4713         0.523278   
    286. A(O  10,Zr  3,O  25)          157.0041         0.519579   
    287. A(O   9,Zr  3,O  25)           90.1662         0.491142   
    288. A(O   6,Zr  3,O   9)           68.2191         0.452650   
    289. A(O  24,Zr  3,O  27)          137.1992         0.527890   
    290. A(O  25,Zr  3,O  27)           83.0659         0.553201   
    291. A(O  26,Zr  3,O  27)           81.3932         0.525637   
    292. A(Zr  0,Zr  3,O  27)          109.7801         0.359158   
    293. A(O   9,Zr  4,O  10)           66.3845         0.443304   
    294. A(O   7,Zr  4,O  10)           64.9285         0.449511   
    295. A(Zr  3,Zr  4,O  10)           34.9775         0.336082   
    296. A(Zr  1,Zr  4,O  28)          127.9044         0.372194   
    297. A(O  28,Zr  4,O  30)           82.0661         0.551086   
    298. A(Zr  3,Zr  4,O  31)          160.1924         0.344421   
    299. A(O   7,Zr  4,O  28)          163.6145         0.492046   
    300. A(O  30,Zr  4,O  31)           81.8642         0.516269   
    301. A(Zr  3,Zr  4,O  28)           74.1900         0.365234   
    302. A(O   9,Zr  4,O  31)          135.3636         0.455261   
    303. A(Zr  1,Zr  4,O  29)          145.0826         0.361130   
    304. A(O   9,Zr  4,O  30)          142.3807         0.481212   
    305. A(O  29,Zr  4,O  30)          136.6489         0.533032   
    306. A(O  10,Zr  4,O  30)           85.3802         0.502321   
    307. A(O   7,Zr  4,O  30)           92.9399         0.488083   
    308. A(Zr  1,Zr  4,O  31)           94.3576         0.350857   
    309. A(O   7,Zr  4,O  31)           68.7068         0.461678   
    310. A(Zr  1,Zr  4,O  30)           70.9008         0.369410   
    311. A(Zr  3,Zr  4,O  29)          109.0609         0.354442   
    312. A(O   7,Zr  4,O  29)          110.4214         0.476299   
    313. A(O   9,Zr  4,O  29)           72.4526         0.469630   
    314. A(O  10,Zr  4,O  28)           99.0036         0.506425   
    315. A(Zr  1,Zr  4,O   9)           96.4627         0.329371   
    316. A(O  28,Zr  4,O  31)          125.4395         0.520512   
    317. A(O  10,Zr  4,O  29)          137.2814         0.490116   
    318. A(O   9,Zr  4,O  28)           78.6238         0.485106   
    319. A(Zr  1,Zr  4,O   7)           36.4417         0.333583   
    320. A(O  10,Zr  4,O  31)          130.9743         0.474973   
    321. A(O  28,Zr  4,O  29)           83.3065         0.537441   
    322. A(O  29,Zr  4,O  31)           74.0840         0.503653   
    323. A(O   7,Zr  4,O   9)           96.6029         0.431100   
    324. A(Zr  3,Zr  4,O  30)          105.7291         0.362518   
    325. A(Zr  1,Zr  4,Zr  3)           71.7422         0.256628   
    326. A(Zr  3,Zr  4,O   7)           92.3607         0.327571   
    327. A(Zr  3,Zr  4,O   9)           37.7699         0.323463   
    328. A(Zr  1,Zr  4,O  10)           37.0950         0.342308   
    329. A(O  11,Zr  5,O  35)           98.2898         0.506297   
    330. A(O  34,Zr  5,O  35)           82.7942         0.536803   
    331. A(O  33,Zr  5,O  35)           82.0009         0.551621   
    332. A(O  32,Zr  5,O  35)          126.2208         0.519533   
    333. A(O   8,Zr  5,O  35)           78.6489         0.484859   
    334. A(O   6,Zr  5,O  35)          162.7236         0.489204   
    335. A(Zr  2,Zr  5,O  35)           73.9150         0.363168   
    336. A(O  33,Zr  5,O  34)          135.2253         0.533849   
    337. A(O  32,Zr  5,O  34)           73.7448         0.502994   
    338. A(O  11,Zr  5,O  34)          137.7913         0.490266   
    339. A(Zr  0,Zr  5,O  35)          126.8970         0.370049   
    340. A(O  32,Zr  5,O  33)           82.0789         0.516694   
    341. A(O   6,Zr  5,O  34)          112.1580         0.473830   
    342. A(Zr  2,Zr  5,O  34)          108.7082         0.352636   
    343. A(Zr  0,Zr  5,O  34)          146.7700         0.359252   
    344. A(O  11,Zr  5,O  33)           86.1005         0.503545   
    345. A(O   8,Zr  5,O  33)          143.3845         0.482248   
    346. A(O   6,Zr  5,O  33)           92.2293         0.486564   
    347. A(Zr  0,Zr  5,O  33)           70.8081         0.368195   
    348. A(O  11,Zr  5,O  32)          131.2523         0.474791   
    349. A(O   8,Zr  5,O  32)          134.1864         0.454972   
    350. A(O   6,Zr  5,O  32)           68.4643         0.458989   
    351. A(Zr  2,Zr  5,O  32)          159.4947         0.342469   
    352. A(Zr  2,Zr  5,O   6)           92.4495         0.324613   
    353. A(Zr  0,Zr  5,Zr  2)           71.9572         0.254462   
    354. A(Zr  0,Zr  5,O   6)           36.3947         0.330526   
    355. A(O   8,Zr  5,O  34)           72.4748         0.469652   
    356. A(Zr  0,Zr  5,O  32)           94.7189         0.348830   
    357. A(O   8,Zr  5,O  11)           66.5261         0.443720   
    358. A(O   6,Zr  5,O  11)           64.9469         0.447614   
    359. A(Zr  2,Zr  5,O  11)           35.0911         0.334676   
    360. A(Zr  0,Zr  5,O  11)           37.2010         0.340842   
    361. A(O   6,Zr  5,O   8)           97.1439         0.429191   
    362. A(Zr  2,Zr  5,O  33)          106.9921         0.361360   
    363. A(Zr  2,Zr  5,O   8)           37.5576         0.322055   
    364. A(Zr  0,Zr  5,O   8)           96.8841         0.327904   
    365. A(Zr  3,O   6,Zr  5)          134.9824         0.448775   
    366. A(Zr  0,O   6,Zr  5)          105.6326         0.455676   
    367. A(Zr  0,O   6,Zr  3)          110.0077         0.472576   
    368. A(Zr  2,O   7,Zr  4)          135.1367         0.454000   
    369. A(Zr  1,O   7,Zr  4)          105.6311         0.458677   
    370. A(Zr  1,O   7,Zr  2)          110.2997         0.476633   
    371. A(Zr  1,O   8,Zr  2)          105.4165         0.436423   
    372. A(Zr  2,O   8,Zr  5)          104.3159         0.433309   
    373. A(Zr  1,O   8,Zr  5)          130.8048         0.428541   
    374. A(Zr  3,O   9,Zr  4)          103.9097         0.432707   
    375. A(Zr  0,O   9,Zr  4)          131.8853         0.429156   
    376. A(Zr  0,O   9,Zr  3)          105.6440         0.436743   
    377. A(Zr  3,O  10,Zr  4)          109.1541         0.476819   
    378. A(Zr  1,O  10,Zr  4)          105.9053         0.460930   
    379. A(Zr  1,O  10,Zr  3)          143.5292         0.475320   
    380. A(Zr  2,O  11,Zr  5)          109.1516         0.473721   
    381. A(Zr  0,O  11,Zr  5)          105.9216         0.458034   
    382. A(Zr  0,O  11,Zr  2)          143.5022         0.468683   
    383. A(Zr  0,O  12,C  36)          125.3780         0.502607   
    384. A(Zr  0,O  13,C  37)          127.5715         0.502576   
    385. A(Zr  0,O  14,C  38)          135.4413         0.477936   
    386. A(Zr  0,O  15,C  39)          138.2037         0.505840   
    387. A(Zr  1,O  16,C  40)          138.9458         0.507700   
    388. A(C  40,O  16,Al 68)          101.2542         0.209472   
    389. A(Zr  1,O  16,Al 68)          103.5838         0.221905   
    390. A(C  40,O  16,Al 61)          107.0160         0.216358   
    391. A(Zr  1,O  16,Al 61)          113.6463         0.229502   
    392. A(Al 61,O  16,Al 68)           59.9015         0.129426   
    393. A(Zr  1,O  17,C  41)          136.5154         0.477034   
    394. A(Al 60,O  17,Al 61)           59.5903         0.128745   
    395. A(C  41,O  17,Al 61)           96.4758         0.203236   
    396. A(Zr  1,O  17,Al 61)          106.4145         0.206153   
    397. A(C  41,O  17,Al 60)          110.6275         0.220643   
    398. A(Zr  1,O  17,Al 60)          112.8302         0.224004   
    399. A(Zr  1,O  18,C  42)          127.8653         0.504293   
    400. A(Al 68,O  18,Al 72)           60.4789         0.131499   
    401. A(C  42,O  18,Al 72)          104.3021         0.209271   
    402. A(Zr  1,O  18,Al 72)          104.1943         0.221917   
    403. A(C  42,O  18,Al 68)          124.2100         0.221786   
    404. A(Zr  1,O  18,Al 68)          107.7725         0.235749   
    405. A(C  43,O  19,Al 72)          124.2604         0.214368   
    406. A(Zr  1,O  19,Al 72)          105.7704         0.226902   
    407. A(Zr  1,O  19,C  43)          125.3466         0.502197   
    408. A(Zr  2,O  20,C  44)          131.9454         0.510395   
    409. A(Zr  2,O  21,C  38)          139.5661         0.480968   
    410. A(Zr  2,O  22,C  42)          129.1525         0.505201   
    411. A(Zr  2,O  23,C  45)          137.2562         0.480560   
    412. A(Zr  3,O  24,C  46)          136.8254         0.482332   
    413. A(Zr  3,O  25,C  37)          128.3470         0.504680   
    414. A(Zr  3,O  26,C  41)          138.6823         0.481511   
    415. A(Zr  3,O  27,C  47)          131.9310         0.509292   
    416. A(Zr  4,O  28,C  47)          131.8736         0.508605   
    417. A(Zr  4,O  29,C  39)          140.0948         0.493319   
    418. A(Zr  4,O  30,C  43)          127.6871         0.503202   
    419. A(Zr  4,O  31,C  45)          128.8956         0.476986   
    420. A(Zr  5,O  32,C  46)          128.6392         0.476507   
    421. A(Zr  5,O  33,C  36)          128.4185         0.504219   
    422. A(Zr  5,O  34,C  40)          138.8728         0.493256   
    423. A(Zr  5,O  35,C  44)          132.0503         0.508192   
    424. A(O  12,C  36,O  33)          126.7143         0.464360   
    425. A(O  33,C  36,H  58)          116.6607         0.363673   
    426. A(O  12,C  36,H  58)          116.6231         0.363829   
    427. A(O  13,C  37,O  25)          127.3378         0.464394   
    428. A(O  25,C  37,H  51)          116.3296         0.363903   
    429. A(O  13,C  37,H  51)          116.3325         0.363878   
    430. A(O  14,C  38,O  21)          130.0157         0.467301   
    431. A(O  21,C  38,H  50)          114.9585         0.366450   
    432. A(O  14,C  38,H  50)          115.0204         0.366542   
    433. A(O  15,C  39,O  29)          128.9791         0.468490   
    434. A(O  29,C  39,H  54)          115.5080         0.366610   
    435. A(O  15,C  39,H  54)          115.5067         0.366707   
    436. A(O  16,C  40,O  34)          128.9353         0.468527   
    437. A(O  34,C  40,H  56)          115.4634         0.366648   
    438. A(O  16,C  40,H  56)          115.5966         0.366651   
    439. A(O  17,C  41,O  26)          130.0467         0.467356   
    440. A(O  26,C  41,H  48)          114.9230         0.366528   
    441. A(O  17,C  41,H  48)          115.0240         0.366540   
    442. A(O  18,C  42,O  22)          127.3528         0.464764   
    443. A(O  22,C  42,H  49)          116.3230         0.364091   
    444. A(O  18,C  42,H  49)          116.3240         0.364103   
    445. A(O  30,C  43,H  52)          116.7467         0.363583   
    446. A(O  19,C  43,H  52)          116.6741         0.363829   
    447. A(O  19,C  43,O  30)          126.5783         0.464303   
    448. A(O  35,C  44,H  59)          116.2121         0.365006   
    449. A(O  20,C  44,H  59)          116.2545         0.365014   
    450. A(O  20,C  44,O  35)          127.5334         0.466346   
    451. A(O  31,C  45,H  55)          115.0846         0.365691   
    452. A(O  23,C  45,H  55)          115.1516         0.365258   
    453. A(O  23,C  45,O  31)          129.7620         0.465686   
    454. A(O  32,C  46,H  57)          115.1162         0.365631   
    455. A(O  24,C  46,H  57)          115.2133         0.365179   
    456. A(O  24,C  46,O  32)          129.6674         0.465649   
    457. A(O  28,C  47,H  53)          116.1913         0.364981   
    458. A(O  27,C  47,H  53)          116.2258         0.364984   
    459. A(O  27,C  47,O  28)          127.5828         0.466289   
    460. A(O  17,Al 60,Al 72)           89.9492         0.165559   
    461. A(O  17,Al 60,H  71)          158.9047         0.204883   
    462. A(O  17,Al 60,H  66)           91.1550         0.198032   
    463. A(O  17,Al 60,H  65)           60.1810         0.204822   
    464. A(O  17,Al 60,H  64)           61.7173         0.197991   
    465. A(O  17,Al 60,Al 61)           62.7630         0.165350   
    466. A(H  71,Al 60,Al 72)          110.7405         0.282706   
    467. A(H  65,Al 60,Al 72)          117.6133         0.282604   
    468. A(H  64,Al 60,Al 72)           96.0281         0.271185   
    469. A(Al 61,Al 60,Al 72)           89.4791         0.216624   
    470. A(H  66,Al 60,H  71)          109.8843         0.364867   
    471. A(H  65,Al 60,H  71)          110.5095         0.382048   
    472. A(H  64,Al 60,H  71)          110.1686         0.364763   
    473. A(Al 61,Al 60,H  71)          111.6553         0.282178   
    474. A(H  65,Al 60,H  66)          112.4862         0.364720   
    475. A(H  64,Al 60,H  66)          102.6622         0.348458   
    476. A(Al 61,Al 60,H  66)           96.1644         0.270755   
    477. A(H  64,Al 60,H  65)          110.8818         0.364617   
    478. A(H  66,Al 60,Al 72)            7.0034         0.271253   
    479. A(Al 61,Al 60,H  65)          115.3573         0.282075   
    480. A(Al 61,Al 60,H  64)            6.6618         0.270688   
    481. A(O  16,Al 61,O  17)           43.9661         0.127392   
    482. A(O  17,Al 61,Al 68)           89.9428         0.155106   
    483. A(O  17,Al 61,H  67)          156.8021         0.189568   
    484. A(O  17,Al 61,H  64)           56.6464         0.183563   
    485. A(O  17,Al 61,H  62)           92.4631         0.183545   
    486. A(O  17,Al 61,Al 60)           57.6467         0.155255   
    487. A(O  16,Al 61,Al 68)           61.0492         0.162587   
    488. A(O  16,Al 61,H  67)          155.3962         0.200949   
    489. A(O  16,Al 61,H  64)           94.3513         0.194264   
    490. A(O  16,Al 61,H  63)           60.1890         0.200876   
    491. A(O  16,Al 61,H  62)           59.9934         0.194244   
    492. A(O  16,Al 61,Al 60)           92.3357         0.162752   
    493. A(O  17,Al 61,H  63)           64.0827         0.189503   
    494. A(H  67,Al 61,Al 68)          111.6663         0.281760   
    495. A(H  64,Al 61,Al 68)           97.0931         0.270250   
    496. A(H  63,Al 61,Al 68)          115.7156         0.281635   
    497. A(H  62,Al 61,Al 68)            6.3572         0.270216   
    498. A(Al 60,Al 61,Al 68)           90.5591         0.215991   
    499. A(H  64,Al 61,H  67)          110.1351         0.364736   
    500. A(H  63,Al 61,H  67)          110.6001         0.382057   
    501. A(H  62,Al 61,H  67)          109.9217         0.364685   
    502. A(Al 60,Al 61,H  67)          111.7177         0.282192   
    503. A(H  63,Al 61,H  64)          110.8797         0.364557   
    504. A(H  62,Al 61,H  64)          103.3468         0.348222   
    505. A(Al 60,Al 61,H  64)            6.6609         0.270656   
    506. A(H  62,Al 61,H  63)          111.7424         0.364506   
    507. A(Al 60,Al 61,H  63)          115.2724         0.282067   
    508. A(Al 60,Al 61,H  62)           96.8383         0.270622   
    509. A(Al 61,H  62,Al 68)          167.2857         0.348168   
    510. A(Al 60,H  64,Al 61)          166.6773         0.348316   
    511. A(Al 60,H  66,Al 72)          165.9939         0.348516   
    512. A(O  16,Al 68,O  18)           48.2347         0.131359   
    513. A(O  16,Al 68,H  75)          154.7979         0.194897   
    514. A(O  16,Al 68,H  70)           61.2182         0.194744   
    515. A(O  16,Al 68,H  69)           94.3042         0.188554   
    516. A(O  16,Al 68,H  62)           58.0097         0.188552   
    517. A(O  16,Al 68,Al 61)           59.0493         0.158609   
    518. A(O  18,Al 68,H  75)          150.6894         0.206303   
    519. A(O  18,Al 68,Al 72)           61.5365         0.166120   
    520. A(O  18,Al 68,H  70)           57.1475         0.206133   
    521. A(O  18,Al 68,H  69)           59.5898         0.199277   
    522. A(O  18,Al 68,H  62)           98.7084         0.199274   
    523. A(O  18,Al 68,Al 61)           96.5293         0.166106   
    524. A(Al 72,Al 68,H  75)          112.0072         0.281797   
    525. A(H  70,Al 68,H  75)          110.9088         0.381829   
    526. A(H  69,Al 68,H  75)          110.5346         0.364688   
    527. A(H  62,Al 68,H  75)          110.5390         0.364681   
    528. A(Al 61,Al 68,H  75)          112.3437         0.281762   
    529. A(H  70,Al 68,Al 72)          115.2716         0.281519   
    530. A(H  69,Al 68,Al 72)            6.3527         0.270250   
    531. A(H  62,Al 68,Al 72)           95.6245         0.270245   
    532. A(Al 61,Al 68,Al 72)           89.3346         0.215730   
    533. A(H  69,Al 68,H  70)          111.1183         0.364290   
    534. A(H  62,Al 68,H  70)          111.6026         0.364282   
    535. A(Al 61,Al 68,H  70)          115.4573         0.281484   
    536. A(H  62,Al 68,H  69)          101.8205         0.348169   
    537. A(O  16,Al 68,Al 72)           92.2229         0.158621   
    538. A(Al 61,Al 68,H  69)           95.5542         0.270217   
    539. A(Al 61,Al 68,H  62)            6.3571         0.270212   
    540. A(Al 68,H  69,Al 72)          167.2939         0.348221   
    541. A(O  18,Al 72,O  19)           45.9728         0.129132   
    542. A(O  18,Al 72,H  74)          150.9834         0.195231   
    543. A(O  18,Al 72,H  73)           62.0664         0.195142   
    544. A(O  18,Al 72,H  69)           56.0647         0.188901   
    545. A(O  18,Al 72,Al 68)           57.9846         0.158851   
    546. A(O  18,Al 72,H  66)           98.0716         0.188941   
    547. A(O  18,Al 72,Al 60)           96.4001         0.159187   
    548. A(O  19,Al 72,H  74)          156.0880         0.199753   
    549. A(O  19,Al 72,H  73)           56.3996         0.199660   
    550. A(O  19,Al 72,H  69)           94.6228         0.193153   
    551. A(O  19,Al 72,Al 68)           93.3941         0.161825   
    552. A(O  19,Al 72,H  66)           63.9030         0.193195   
    553. A(O  19,Al 72,Al 60)           66.2831         0.162174   
    554. A(H  73,Al 72,H  74)          110.7075         0.381919   
    555. A(H  69,Al 72,H  74)          109.2337         0.364695   
    556. A(Al 68,Al 72,H  74)          110.4963         0.281769   
    557. A(H  66,Al 72,H  74)          110.2547         0.364807   
    558. A(Al 60,Al 72,H  74)          110.9455         0.282694   
    559. A(H  69,Al 72,H  73)          111.6191         0.364464   
    560. A(Al 68,Al 72,H  73)          116.0075         0.281607   
    561. A(H  66,Al 72,H  73)          111.3670         0.364575   
    562. A(Al 60,Al 72,H  73)          116.6317         0.282531   
    563. A(Al 68,Al 72,H  69)            6.3535         0.270282   
    564. A(H  66,Al 72,H  69)          103.4270         0.348371   
    565. A(Al 60,Al 72,H  69)           96.8256         0.271152   
    566. A(H  66,Al 72,Al 68)           97.2806         0.270355   
    567. A(Al 60,Al 72,Al 68)           90.6203         0.216362   
    568. A(Al 60,Al 72,H  66)            7.0027         0.271225   
    569. D(Zr  5,Zr  2,Zr  1,Zr  4)    103.2848         0.010000   
    570. D(Zr  5,Zr  2,Zr  1,O   7)    120.7092         0.010000   
    571. D(O   7,Zr  2,Zr  1,Zr  4)    -17.4243         0.010000   
    572. D(Zr  4,Zr  3,Zr  0,Zr  5)   -102.8543         0.010000   
    573. D(O   6,Zr  3,Zr  0,Zr  5)     17.8137         0.010000   
    574. D(Zr  4,Zr  3,Zr  0,O   6)   -120.6681         0.010000   
    575. D(Zr  3,Zr  4,Zr  1,O   7)   -121.3192         0.010000   
    576. D(Zr  3,Zr  4,Zr  1,Zr  2)   -105.0945         0.010000   
    577. D(Zr  1,Zr  4,Zr  3,O   6)     75.3805         0.010000   
    578. D(O   7,Zr  4,Zr  3,Zr  0)     74.2389         0.010000   
    579. D(Zr  1,Zr  4,Zr  3,Zr  0)    104.7616         0.010000   
    580. D(O   7,Zr  4,Zr  1,Zr  2)     16.2248         0.010000   
    581. D(O   6,Zr  5,Zr  0,Zr  3)    -16.6611         0.010000   
    582. D(Zr  2,Zr  5,Zr  0,O   6)    121.1762         0.010000   
    583. D(Zr  0,Zr  5,Zr  2,Zr  1)   -104.7558         0.010000   
    584. D(Zr  2,Zr  5,Zr  0,Zr  3)    104.5151         0.010000   
    585. D(O   6,Zr  5,Zr  2,Zr  1)    -74.2173         0.010000   
    586. D(Zr  0,Zr  5,Zr  2,O   7)    -75.4482         0.010000   
    587. D(Zr  5,O   6,Zr  3,Zr  0)   -140.2943         0.010000   
    588. D(Zr  0,O   6,Zr  5,Zr  2)    -54.5133         0.010000   
    589. D(Zr  0,O   6,Zr  5,O   8)    -91.9230         0.010000   
    590. D(Zr  3,O   6,Zr  0,Zr  5)   -152.0159         0.010000   
    591. D(Zr  5,O   6,Zr  0,Zr  3)    152.0159         0.010000   
    592. D(Zr  3,O   6,Zr  0,O   9)    -21.9668         0.010000   
    593. D(Zr  3,O   6,Zr  5,Zr  0)    141.4392         0.010000   
    594. D(Zr  0,O   6,Zr  3,Zr  4)     54.2999         0.010000   
    595. D(Zr  0,O   6,Zr  3,O   9)     22.1288         0.010000   
    596. D(Zr  1,O   7,Zr  2,Zr  5)    -54.0968         0.010000   
    597. D(Zr  2,O   7,Zr  1,O   8)     21.6132         0.010000   
    598. D(Zr  4,O   7,Zr  1,Zr  2)   -152.6540         0.010000   
    599. D(Zr  2,O   7,Zr  1,Zr  4)    152.6540         0.010000   
    600. D(Zr  1,O   7,Zr  4,Zr  3)     54.2884         0.010000   
    601. D(Zr  1,O   7,Zr  4,O   9)     91.9476         0.010000   
    602. D(Zr  4,O   7,Zr  2,Zr  1)    141.1629         0.010000   
    603. D(Zr  1,O   7,Zr  2,O   8)    -21.7834         0.010000   
    604. D(Zr  2,O   7,Zr  4,Zr  1)   -142.3565         0.010000   
    605. D(Zr  1,O   8,Zr  5,Zr  2)   -125.6451         0.010000   
    606. D(Zr  2,O   8,Zr  5,Zr  0)     48.0240         0.010000   
    607. D(Zr  5,O   8,Zr  2,Zr  1)   -140.3512         0.010000   
    608. D(Zr  1,O   8,Zr  5,Zr  0)    -77.6211         0.010000   
    609. D(Zr  1,O   8,Zr  2,O   7)     20.3264         0.010000   
    610. D(Zr  5,O   8,Zr  1,Zr  2)    125.2347         0.010000   
    611. D(Zr  2,O   8,Zr  1,Zr  4)    -48.2179         0.010000   
    612. D(Zr  1,O   8,Zr  2,Zr  5)    140.3512         0.010000   
    613. D(Zr  2,O   8,Zr  1,O   7)    -20.4896         0.010000   
    614. D(Zr  3,O   9,Zr  4,Zr  1)    -48.6260         0.010000   
    615. D(Zr  0,O   9,Zr  4,Zr  3)    126.5301         0.010000   
    616. D(Zr  0,O   9,Zr  4,Zr  1)     77.9041         0.010000   
    617. D(Zr  4,O   9,Zr  3,Zr  0)    141.5934         0.010000   
    618. D(Zr  0,O   9,Zr  3,O   6)    -20.7645         0.010000   
    619. D(Zr  0,O   9,Zr  3,Zr  4)   -141.5934         0.010000   
    620. D(Zr  4,O   9,Zr  0,Zr  3)   -125.9055         0.010000   
    621. D(Zr  3,O   9,Zr  0,Zr  5)     49.1691         0.010000   
    622. D(Zr  3,O   9,Zr  0,O   6)     20.9771         0.010000   
    623. D(Zr  1,O  10,Zr  4,O   7)    -31.3676         0.010000   
    624. D(Zr  1,O  10,Zr  4,Zr  3)   -169.7861         0.010000   
    625. D(Zr  4,O  10,Zr  3,Zr  0)    -61.8885         0.010000   
    626. D(Zr  1,O  10,Zr  3,Zr  4)    163.3278         0.010000   
    627. D(Zr  1,O  10,Zr  3,Zr  0)    101.4393         0.010000   
    628. D(Zr  4,O  10,Zr  1,Zr  2)     61.6997         0.010000   
    629. D(Zr  3,O  10,Zr  1,Zr  2)   -101.9325         0.010000   
    630. D(Zr  3,O  10,Zr  4,Zr  1)    169.7861         0.010000   
    631. D(Zr  3,O  10,Zr  1,Zr  4)   -163.6322         0.010000   
    632. D(Zr  2,O  11,Zr  5,Zr  0)   -169.7354         0.010000   
    633. D(Zr  0,O  11,Zr  5,Zr  2)    169.7354         0.010000   
    634. D(Zr  5,O  11,Zr  2,Zr  1)     61.6792         0.010000   
    635. D(Zr  0,O  11,Zr  2,Zr  5)   -163.2559         0.010000   
    636. D(Zr  0,O  11,Zr  2,Zr  1)   -101.5767         0.010000   
    637. D(Zr  5,O  11,Zr  0,Zr  3)    -62.2071         0.010000   
    638. D(Zr  0,O  11,Zr  5,O   6)     31.3714         0.010000   
    639. D(Zr  2,O  11,Zr  0,Zr  5)    163.5601         0.010000   
    640. D(Zr  2,O  11,Zr  0,Zr  3)    101.3529         0.010000   
    641. D(C  36,O  12,Zr  0,Zr  5)     29.2203         0.010000   
    642. D(C  36,O  12,Zr  0,Zr  3)     93.1040         0.010000   
    643. D(C  37,O  13,Zr  0,Zr  5)    -17.3807         0.010000   
    644. D(C  37,O  13,Zr  0,Zr  3)     30.0303         0.010000   
    645. D(C  38,O  14,Zr  0,Zr  5)     65.8724         0.010000   
    646. D(C  38,O  14,Zr  0,Zr  3)     32.1288         0.010000   
    647. D(C  39,O  15,Zr  0,Zr  5)     58.3451         0.010000   
    648. D(C  39,O  15,Zr  0,Zr  3)    -27.2291         0.010000   
    649. D(Al 61,O  16,Zr  1,Zr  2)   -164.1697         0.010000   
    650. D(C  40,O  16,Zr  1,Zr  4)    -61.2635         0.010000   
    651. D(C  40,O  16,Zr  1,Zr  2)     24.2815         0.010000   
    652. D(Al 60,O  17,Zr  1,Zr  2)    148.5958         0.010000   
    653. D(C  41,O  17,Zr  1,Zr  4)    -62.1423         0.010000   
    654. D(C  41,O  17,Zr  1,Zr  2)    -29.2726         0.010000   
    655. D(Al 68,O  18,Zr  1,Zr  2)    148.0763         0.010000   
    656. D(C  42,O  18,Zr  1,Zr  4)     19.9748         0.010000   
    657. D(C  42,O  18,Zr  1,Zr  2)    -27.5440         0.010000   
    658. D(Al 72,O  19,Zr  1,Zr  2)    109.8409         0.010000   
    659. D(C  43,O  19,Zr  1,Zr  4)    -29.9031         0.010000   
    660. D(C  43,O  19,Zr  1,Zr  2)    -93.5991         0.010000   
    661. D(C  44,O  20,Zr  2,Zr  5)      5.2976         0.010000   
    662. D(C  44,O  20,Zr  2,Zr  1)    -55.4965         0.010000   
    663. D(C  38,O  21,Zr  2,Zr  5)    -35.5656         0.010000   
    664. D(C  38,O  21,Zr  2,Zr  1)     15.6647         0.010000   
    665. D(C  42,O  22,Zr  2,Zr  5)     22.4613         0.010000   
    666. D(C  42,O  22,Zr  2,Zr  1)    -27.4347         0.010000   
    667. D(C  45,O  23,Zr  2,Zr  5)    -71.2594         0.010000   
    668. D(C  45,O  23,Zr  2,Zr  1)      3.1657         0.010000   
    669. D(C  46,O  24,Zr  3,Zr  4)     77.3831         0.010000   
    670. D(C  46,O  24,Zr  3,Zr  0)      0.9660         0.010000   
    671. D(C  37,O  25,Zr  3,Zr  4)    -19.9029         0.010000   
    672. D(C  37,O  25,Zr  3,Zr  0)     28.6786         0.010000   
    673. D(C  41,O  26,Zr  3,Zr  4)     40.5300         0.010000   
    674. D(C  41,O  26,Zr  3,Zr  0)     -6.5462         0.010000   
    675. D(C  47,O  27,Zr  3,Zr  4)     -3.2165         0.010000   
    676. D(C  47,O  27,Zr  3,Zr  0)     59.0421         0.010000   
    677. D(C  47,O  28,Zr  4,Zr  1)     46.6687         0.010000   
    678. D(C  47,O  28,Zr  4,Zr  3)     -4.0492         0.010000   
    679. D(C  39,O  29,Zr  4,Zr  3)     32.9306         0.010000   
    680. D(C  39,O  29,Zr  4,Zr  1)    -52.2440         0.010000   
    681. D(C  43,O  30,Zr  4,Zr  3)    -98.7175         0.010000   
    682. D(C  43,O  30,Zr  4,Zr  1)    -34.9466         0.010000   
    683. D(C  45,O  31,Zr  4,Zr  3)    -30.4400         0.010000   
    684. D(C  45,O  31,Zr  4,Zr  1)    -74.7433         0.010000   
    685. D(C  46,O  32,Zr  5,Zr  2)     26.9109         0.010000   
    686. D(C  46,O  32,Zr  5,Zr  0)     75.1150         0.010000   
    687. D(C  36,O  33,Zr  5,Zr  2)     97.1179         0.010000   
    688. D(C  36,O  33,Zr  5,Zr  0)     33.8160         0.010000   
    689. D(C  40,O  34,Zr  5,Zr  2)    -38.4146         0.010000   
    690. D(C  40,O  34,Zr  5,Zr  0)     47.0074         0.010000   
    691. D(C  44,O  35,Zr  5,Zr  2)      5.0679         0.010000   
    692. D(C  44,O  35,Zr  5,Zr  0)    -46.6486         0.010000   
    693. D(O  12,C  36,O  33,Zr  5)    -27.1384         0.045747   
    694. D(H  58,C  36,O  12,Zr  0)    160.9160         0.046002   
    695. D(O  33,C  36,O  12,Zr  0)    -18.5659         0.046002   
    696. D(H  58,C  36,O  33,Zr  5)    153.3798         0.045747   
    697. D(H  51,C  37,O  25,Zr  3)    160.0286         0.045915   
    698. D(O  13,C  37,O  25,Zr  3)    -19.8781         0.045915   
    699. D(H  51,C  37,O  13,Zr  0)    156.8221         0.045874   
    700. D(O  25,C  37,O  13,Zr  0)    -23.2712         0.045874   
    701. D(H  50,C  38,O  21,Zr  2)    173.5904         0.047595   
    702. D(O  14,C  38,O  21,Zr  2)     -5.5124         0.047595   
    703. D(H  50,C  38,O  14,Zr  0)    165.2313         0.047750   
    704. D(O  21,C  38,O  14,Zr  0)    -15.6664         0.047750   
    705. D(H  54,C  39,O  29,Zr  4)   -175.6635         0.048334   
    706. D(O  15,C  39,O  29,Zr  4)      5.2867         0.048334   
    707. D(H  54,C  39,O  15,Zr  0)    171.9242         0.048500   
    708. D(O  29,C  39,O  15,Zr  0)     -9.0260         0.048500   
    709. D(H  56,C  40,O  34,Zr  5)   -179.9853         0.062858   
    710. D(O  16,C  40,O  34,Zr  5)     -0.8144         0.062858   
    711. D(H  56,C  40,O  16,Zr  1)   -170.5381         0.082428   
    712. D(O  34,C  40,O  16,Al 61)   -161.6145         0.082428   
    713. D(O  34,C  40,O  16,Zr  1)     10.2919         0.082428   
    714. D(H  48,C  41,O  26,Zr  3)   -176.1228         0.061889   
    715. D(O  17,C  41,O  26,Zr  3)      2.8989         0.061889   
    716. D(H  48,C  41,O  17,Zr  1)   -168.8685         0.081177   
    717. D(O  26,C  41,O  17,Al 60)   -165.7903         0.081177   
    718. D(O  26,C  41,O  17,Zr  1)     12.1105         0.081177   
    719. D(H  49,C  42,O  22,Zr  2)   -160.0450         0.059813   
    720. D(O  18,C  42,O  22,Zr  2)     19.8116         0.059813   
    721. D(H  49,C  42,O  18,Zr  1)   -159.5216         0.078437   
    722. D(O  22,C  42,O  18,Al 68)   -154.3334         0.078437   
    723. D(O  22,C  42,O  18,Zr  1)     20.6218         0.078437   
    724. D(H  52,C  43,O  30,Zr  4)   -152.0074         0.054970   
    725. D(O  19,C  43,O  30,Zr  4)     28.3560         0.054970   
    726. D(H  52,C  43,O  19,Zr  1)   -161.1428         0.071317   
    727. D(O  30,C  43,O  19,Al 72)    170.9012         0.071317   
    728. D(O  30,C  43,O  19,Zr  1)     18.4940         0.071317   
    729. D(H  59,C  44,O  35,Zr  5)    176.3651         0.047075   
    730. D(O  20,C  44,O  35,Zr  5)     -3.5848         0.047075   
    731. D(H  59,C  44,O  20,Zr  2)    175.9730         0.047089   
    732. D(O  35,C  44,O  20,Zr  2)     -4.0771         0.047089   
    733. D(H  55,C  45,O  31,Zr  4)   -163.1715         0.047039   
    734. D(O  23,C  45,O  31,Zr  4)     16.3148         0.047039   
    735. D(H  55,C  45,O  23,Zr  2)   -148.9026         0.046319   
    736. D(O  31,C  45,O  23,Zr  2)     31.6113         0.046319   
    737. D(H  57,C  46,O  32,Zr  5)    163.0792         0.047032   
    738. D(O  24,C  46,O  32,Zr  5)    -16.2380         0.047032   
    739. D(H  57,C  46,O  24,Zr  3)    145.9260         0.046281   
    740. D(O  32,C  46,O  24,Zr  3)    -34.7574         0.046281   
    741. D(H  53,C  47,O  28,Zr  4)   -176.5154         0.047044   
    742. D(O  27,C  47,O  28,Zr  4)      3.5898         0.047044   
    743. D(H  53,C  47,O  27,Zr  3)   -178.1269         0.047050   
    744. D(O  28,C  47,O  27,Zr  3)      1.7679         0.047050   
    745. D(H  64,Al 60,O  17,Zr  1)    103.6609         0.010000   
    746. D(Al 61,Al 60,O  17,C  41)    -85.3425         0.010000   
    747. D(Al 61,Al 60,O  17,Zr  1)     96.2247         0.010000   
    748. D(H  63,Al 61,Al 60,H  64)    -49.8504         0.010000   
    749. D(H  62,Al 61,Al 60,H  65)   -118.9446         0.010000   
    750. D(H  62,Al 61,Al 60,H  64)   -167.8324         0.010000   
    751. D(H  62,Al 61,O  17,Zr  1)    -10.6879         0.010000   
    752. D(Al 60,Al 61,O  17,C  41)    110.1507         0.010000   
    753. D(Al 60,Al 61,O  17,Zr  1)   -107.2240         0.010000   
    754. D(H  62,Al 61,O  16,Zr  1)     99.6415         0.010000   
    755. D(Al 60,Al 61,O  16,C  40)    177.2989         0.010000   
    756. D(Al 60,Al 61,O  16,Zr  1)      3.0924         0.010000   
    757. D(Al 68,H  62,Al 61,H  63)   -129.7369         0.010000   
    758. D(Al 68,H  62,Al 61,Al 60)     -9.0239         0.010000   
    759. D(Al 60,H  64,Al 61,H  63)    132.2867         0.010000   
    760. D(Al 60,H  64,Al 61,H  62)     12.4204         0.010000   
    761. D(Al 61,H  64,Al 60,H  66)    -12.8740         0.010000   
    762. D(Al 61,H  64,Al 60,H  65)   -133.2227         0.010000   
    763. D(Al 72,H  66,Al 60,H  64)     18.8959         0.010000   
    764. D(Al 72,H  66,Al 60,Al 61)     17.4062         0.010000   
    765. D(H  69,Al 68,H  62,Al 61)      9.7869         0.010000   
    766. D(H  69,Al 68,Al 61,Al 60)      0.6634         0.010000   
    767. D(H  62,Al 68,Al 61,H  63)     52.4481         0.010000   
    768. D(H  62,Al 68,Al 61,Al 60)    171.0404         0.010000   
    769. D(H  62,Al 68,O  18,Zr  1)      4.8652         0.010000   
    770. D(Al 61,Al 68,O  18,C  42)   -173.2898         0.010000   
    771. D(Al 61,Al 68,O  18,Zr  1)     10.8907         0.010000   
    772. D(H  62,Al 68,O  16,Zr  1)   -117.0417         0.010000   
    773. D(Al 61,Al 68,O  16,C  40)    103.2697         0.010000   
    774. D(H  70,Al 68,H  62,Al 61)    128.3928         0.010000   
    775. D(Al 61,Al 68,O  16,Zr  1)   -109.6871         0.010000   
    776. D(Al 72,H  69,Al 68,H  62)    -12.8707         0.010000   
    777. D(Al 72,H  69,Al 68,Al 61)    -11.7871         0.010000   
    778. D(H  66,Al 72,H  69,Al 68)     14.8279         0.010000   
    779. D(Al 60,Al 72,H  69,Al 68)     12.4532         0.010000   
    780. D(Al 60,Al 72,Al 68,H  62)     -0.2908         0.010000   
    781. D(Al 60,Al 72,Al 68,Al 61)      0.6325         0.010000   
    782. D(H  69,Al 72,H  66,Al 60)    -19.7218         0.010000   
    783. D(Al 68,Al 72,H  66,Al 60)    -18.0858         0.010000   
    784. D(Al 68,Al 72,Al 60,Al 61)     -0.6330         0.010000   
    785. D(H  66,Al 72,Al 60,H  64)   -161.4743         0.010000   
    786. D(H  66,Al 72,Al 60,Al 61)   -162.6969         0.010000   
    787. D(H  66,Al 72,O  19,Zr  1)    101.6266         0.010000   
    788. D(Al 60,Al 72,O  19,C  43)    -62.5211         0.010000   
    789. D(Al 60,Al 72,O  19,Zr  1)     94.3637         0.010000   
    790. D(H  66,Al 72,Al 68,Al 61)      2.8016         0.010000   
    791. D(H  66,Al 72,O  18,Zr  1)     -9.0557         0.010000   
    792. D(Al 60,Al 72,O  18,C  42)   -151.7898         0.010000   
    793. D(Al 60,Al 72,O  18,Zr  1)    -15.9109         0.010000   
    -----------------------------------------------------------------

Number of atoms                         .... 76
Number of degrees of freedom            .... 793


         *************************************************************
         *                GEOMETRY OPTIMIZATION CYCLE   1            *
         *************************************************************
---------------------------------
CARTESIAN COORDINATES (ANGSTROEM)
---------------------------------
  Zr    -0.394389    2.074806    1.412096
  Zr     0.294903   -2.242175   -1.488839
  Zr     1.812405   -1.249754    1.419908
  Zr    -1.887873    1.074833   -1.511513
  Zr     1.492539    0.889614   -1.858334
  Zr    -1.574962   -1.072234    1.778939
  O     -1.704874    0.701902    0.553212
  O      1.610790   -0.876601   -0.632734
  O     -0.012517   -2.070446    0.644886
  O     -0.065606    1.884028   -0.714085
  O     -0.295432   -0.223740   -1.718919
  O      0.207247    0.048348    1.637256
  O     -1.860403    2.178398    2.755782
  O     -1.376778    3.632913    0.656024
  O      0.712228    1.851615    3.146999
  O      1.252742    3.127531    1.048018
  O     -1.355976   -3.276872   -1.120077
  O     -0.811570   -2.017114   -3.226818
  O      1.259509   -3.816047   -0.754166
  O      1.753673   -2.348304   -2.842108
  O      1.367449   -2.448506    2.920846
  O      2.208308    0.046787    2.971142
  O      2.767969   -2.849639    0.738795
  O      3.504726   -0.282998    0.758831
  O     -3.543796    0.032894   -0.890917
  O     -2.895420    2.632681   -0.805428
  O     -2.249717   -0.160460   -3.118195
  O     -1.427494    2.333694   -2.961747
  O      0.895273    2.275422   -3.135193
  O      2.341683    2.464840   -0.911250
  O      1.807235   -0.129608   -3.536675
  O      3.460412    0.347936   -1.507668
  O     -3.544667   -0.562447    1.384789
  O     -1.929373   -0.044146    3.440727
  O     -2.408768   -2.684189    0.880311
  O     -0.956398   -2.428642    3.078978
  C     -2.209680    1.221131    3.564989
  C     -2.455514    3.613663   -0.071995
  C      1.713463    1.114860    3.515868
  C      2.152252    3.222985    0.121629
  C     -2.237624   -3.406709   -0.180588
  C     -1.769979   -1.246921   -3.638916
  C      2.318889   -3.822330    0.000802
  C      2.094092   -1.393967   -3.658345
  C      0.230970   -2.826343    3.422254
  C      4.034017    0.042323   -0.383537
  C     -4.096587   -0.281119    0.243571
  C     -0.287322    2.698425   -3.464731
  H     -2.233633   -1.550299   -4.571581
  H      2.894849   -4.749107    0.018773
  H      2.205848    1.433414    4.428624
  H     -3.058638    4.523540   -0.068077
  H      2.674403   -1.684033   -4.537090
  H     -0.327168    3.448284   -4.254652
  H      2.853736    4.044551    0.233740
  H      5.120348    0.069957   -0.398129
  H     -2.938385   -4.227279   -0.304799
  H     -5.182701   -0.324397    0.233186
  H     -2.791300    1.510301    4.443032
  H      0.278901   -3.562069    4.224875
  Al     0.119769   -4.047128   -5.585692
  Al    -2.456627   -4.974434   -3.714635
  H     -1.572205   -5.745363   -2.526481
  H     -3.331477   -3.779386   -3.119064
  H     -1.284442   -4.394061   -4.752250
  H      0.291615   -2.472110   -5.780171
  H      1.299509   -4.701430   -4.603146
  H     -3.386221   -6.028166   -4.470424
  Al    -0.405978   -6.464721   -1.572136
  H      0.996384   -6.063517   -2.384937
  H     -0.405020   -5.864499   -0.091945
  H      0.118084   -4.788024   -6.998870
  Al     2.165658   -5.565144   -3.467501
  H      3.270464   -4.653597   -2.761838
  H      2.837576   -6.845709   -4.141986
  H     -0.603495   -8.047725   -1.544539

----------------------------
CARTESIAN COORDINATES (A.U.)
----------------------------
  NO LB      ZA    FRAG     MASS         X           Y           Z
   0 Zr   12.0000*   0    91.220   -0.745287    3.920815    2.668475
   1 Zr   12.0000*   0    91.220    0.557287   -4.237097   -2.813498
   2 Zr   12.0000*   0    91.220    3.424949   -2.361692    2.683237
   3 Zr   12.0000*   0    91.220   -3.567563    2.031141   -2.856345
   4 Zr   12.0000*   0    91.220    2.820491    1.681128   -3.511741
   5 Zr   12.0000*   0    91.220   -2.976246   -2.026229    3.361708
   6 O     8.0000    0    15.999   -3.221745    1.326402    1.045418
   7 O     8.0000    0    15.999    3.043951   -1.656535   -1.195693
   8 O     8.0000    0    15.999   -0.023653   -3.912576    1.218658
   9 O     8.0000    0    15.999   -0.123977    3.560296   -1.349425
  10 O     8.0000    0    15.999   -0.558285   -0.422807   -3.248286
  11 O     8.0000    0    15.999    0.391641    0.091364    3.093966
  12 O     8.0000    0    15.999   -3.515653    4.116576    5.207672
  13 O     8.0000    0    15.999   -2.601734    6.865210    1.239706
  14 O     8.0000    0    15.999    1.345915    3.499045    5.946966
  15 O     8.0000    0    15.999    2.367340    5.910176    1.980468
  16 O     8.0000    0    15.999   -2.562423   -6.192391   -2.116639
  17 O     8.0000    0    15.999   -1.533646   -3.811793   -6.097803
  18 O     8.0000    0    15.999    2.380127   -7.211285   -1.425167
  19 O     8.0000    0    15.999    3.313961   -4.437652   -5.370807
  20 O     8.0000    0    15.999    2.584105   -4.627006    5.519600
  21 O     8.0000    0    15.999    4.173097    0.088415    5.614645
  22 O     8.0000    0    15.999    5.230704   -5.385038    1.396121
  23 O     8.0000    0    15.999    6.622973   -0.534788    1.433983
  24 O     8.0000    0    15.999   -6.696805    0.062160   -1.683589
  25 O     8.0000    0    15.999   -5.471551    4.975046   -1.522039
  26 O     8.0000    0    15.999   -4.251349   -0.303225   -5.892534
  27 O     8.0000    0    15.999   -2.697573    4.410042   -5.596891
  28 O     8.0000    0    15.999    1.691822    4.299924   -5.924656
  29 O     8.0000    0    15.999    4.425139    4.657872   -1.722012
  30 O     8.0000    0    15.999    3.415179   -0.244923   -6.683348
  31 O     8.0000    0    15.999    6.539231    0.657504   -2.849079
  32 O     8.0000    0    15.999   -6.698449   -1.062870    2.616873
  33 O     8.0000    0    15.999   -3.645986   -0.083424    6.502031
  34 O     8.0000    0    15.999   -4.551911   -5.072383    1.663547
  35 O     8.0000    0    15.999   -1.807330   -4.589469    5.818424
  36 C     6.0000    0    12.011   -4.175690    2.307604    6.736853
  37 C     6.0000    0    12.011   -4.640249    6.828834   -0.136051
  38 C     6.0000    0    12.011    3.237976    2.106779    6.644027
  39 C     6.0000    0    12.011    4.067167    6.090559    0.229846
  40 C     6.0000    0    12.011   -4.228497   -6.437746   -0.341262
  41 C     6.0000    0    12.011   -3.344775   -2.356339   -6.876555
  42 C     6.0000    0    12.011    4.382065   -7.223158    0.001516
  43 C     6.0000    0    12.011    3.957261   -2.634216   -6.913270
  44 C     6.0000    0    12.011    0.436471   -5.341014    6.467124
  45 C     6.0000    0    12.011    7.623187    0.079980   -0.724781
  46 C     6.0000    0    12.011   -7.741428   -0.531238    0.460283
  47 C     6.0000    0    12.011   -0.542959    5.099285   -6.547393
  48 H     1.0000    0     1.008   -4.220955   -2.929641   -8.639036
  49 H     1.0000    0     1.008    5.470471   -8.974511    0.035477
  50 H     1.0000    0     1.008    4.168449    2.708760    8.368886
  51 H     1.0000    0     1.008   -5.779988    8.548251   -0.128647
  52 H     1.0000    0     1.008    5.053890   -3.182362   -8.573857
  53 H     1.0000    0     1.008   -0.618258    6.516312   -8.040127
  54 H     1.0000    0     1.008    5.392779    7.643094    0.441704
  55 H     1.0000    0     1.008    9.676055    0.132199   -0.752354
  56 H     1.0000    0     1.008   -5.552742   -7.988400   -0.575987
  57 H     1.0000    0     1.008   -9.793886   -0.613022    0.440657
  58 H     1.0000    0     1.008   -5.274793    2.854055    8.396113
  59 H     1.0000    0     1.008    0.527047   -6.731336    7.983856
  60 Al   13.0000    0    26.982    0.226330   -7.647964  -10.555428
  61 Al   13.0000    0    26.982   -4.642353   -9.400318   -7.019643
  62 H     1.0000    0     1.008   -2.971037  -10.857162   -4.774357
  63 H     1.0000    0     1.008   -6.295579   -7.142004   -5.894178
  64 H     1.0000    0     1.008   -2.427244   -8.303573   -8.980451
[...]
Total Mass          ...  1303.54 AMU
Quasi RRHO          ...     True
Cut-Off Frequency   ...     1.00 cm^-1

Throughout the following assumptions are being made:
  (1) The electronic state is orbitally nondegenerate
  (2) There are no thermally accessible electronically excited states
  (3) Hindered rotations indicated by low frequency modes are not
      treated as such but are treated as vibrations and this may
      cause some error
  (4) All equations used are the standard statistical mechanics
      equations for an ideal gas
  (5) All vibrations are strictly harmonic

freq.      16.76  E(vib)   ...       0.57 
freq.      25.69  E(vib)   ...       0.56 
freq.      29.53  E(vib)   ...       0.55 
freq.      32.78  E(vib)   ...       0.55 
freq.      34.08  E(vib)   ...       0.55 
freq.      39.89  E(vib)   ...       0.54 
freq.      47.09  E(vib)   ...       0.53 
freq.      52.39  E(vib)   ...       0.52 
freq.      58.98  E(vib)   ...       0.51 
freq.      68.32  E(vib)   ...       0.50 
freq.      70.81  E(vib)   ...       0.50 
freq.      78.03  E(vib)   ...       0.49 
freq.      80.95  E(vib)   ...       0.48 
freq.      90.12  E(vib)   ...       0.47 
freq.      94.71  E(vib)   ...       0.47 
freq.      97.80  E(vib)   ...       0.46 
freq.      99.72  E(vib)   ...       0.46 
freq.     101.36  E(vib)   ...       0.46 
freq.     102.92  E(vib)   ...       0.46 
freq.     105.50  E(vib)   ...       0.45 
freq.     108.75  E(vib)   ...       0.45 
freq.     109.21  E(vib)   ...       0.45 
freq.     115.07  E(vib)   ...       0.44 
freq.     116.87  E(vib)   ...       0.44 
freq.     120.82  E(vib)   ...       0.44 
freq.     126.66  E(vib)   ...       0.43 
freq.     131.26  E(vib)   ...       0.42 
freq.     143.84  E(vib)   ...       0.41 
freq.     144.48  E(vib)   ...       0.41 
freq.     147.43  E(vib)   ...       0.41 
freq.     149.93  E(vib)   ...       0.40 
freq.     151.76  E(vib)   ...       0.40 
freq.     152.42  E(vib)   ...       0.40 
freq.     154.42  E(vib)   ...       0.40 
freq.     156.46  E(vib)   ...       0.40 
freq.     158.80  E(vib)   ...       0.39 
freq.     163.21  E(vib)   ...       0.39 
freq.     164.50  E(vib)   ...       0.39 
freq.     166.62  E(vib)   ...       0.39 
freq.     169.00  E(vib)   ...       0.38 
freq.     170.03  E(vib)   ...       0.38 
freq.     172.07  E(vib)   ...       0.38 
freq.     185.18  E(vib)   ...       0.37 
freq.     187.81  E(vib)   ...       0.36 
freq.     189.54  E(vib)   ...       0.36 
freq.     193.02  E(vib)   ...       0.36 
freq.     195.46  E(vib)   ...       0.36 
freq.     197.44  E(vib)   ...       0.35 
freq.     202.93  E(vib)   ...       0.35 
freq.     209.08  E(vib)   ...       0.34 
freq.     211.01  E(vib)   ...       0.34 
freq.     211.37  E(vib)   ...       0.34 
freq.     228.91  E(vib)   ...       0.32 
freq.     230.32  E(vib)   ...       0.32 
freq.     231.40  E(vib)   ...       0.32 
freq.     234.82  E(vib)   ...       0.32 
freq.     241.47  E(vib)   ...       0.31 
freq.     258.65  E(vib)   ...       0.30 
freq.     259.65  E(vib)   ...       0.30 
freq.     261.22  E(vib)   ...       0.30 
freq.     262.42  E(vib)   ...       0.29 
freq.     264.56  E(vib)   ...       0.29 
freq.     265.31  E(vib)   ...       0.29 
freq.     268.06  E(vib)   ...       0.29 
freq.     271.10  E(vib)   ...       0.29 
freq.     271.62  E(vib)   ...       0.29 
freq.     272.85  E(vib)   ...       0.29 
freq.     273.72  E(vib)   ...       0.28 
freq.     275.37  E(vib)   ...       0.28 
freq.     276.18  E(vib)   ...       0.28 
freq.     277.42  E(vib)   ...       0.28 
freq.     279.15  E(vib)   ...       0.28 
freq.     281.53  E(vib)   ...       0.28 
freq.     283.84  E(vib)   ...       0.28 
freq.     286.70  E(vib)   ...       0.27 
freq.     287.95  E(vib)   ...       0.27 
freq.     291.10  E(vib)   ...       0.27 
freq.     292.07  E(vib)   ...       0.27 
freq.     293.67  E(vib)   ...       0.27 
freq.     301.41  E(vib)   ...       0.26 
freq.     304.87  E(vib)   ...       0.26 
freq.     305.84  E(vib)   ...       0.26 
freq.     307.79  E(vib)   ...       0.26 
freq.     309.24  E(vib)   ...       0.26 
freq.     312.39  E(vib)   ...       0.25 
freq.     314.28  E(vib)   ...       0.25 
freq.     316.66  E(vib)   ...       0.25 
freq.     320.40  E(vib)   ...       0.25 
freq.     324.27  E(vib)   ...       0.25 
freq.     329.23  E(vib)   ...       0.24 
freq.     337.30  E(vib)   ...       0.24 
freq.     341.15  E(vib)   ...       0.23 
freq.     350.46  E(vib)   ...       0.23 
freq.     351.74  E(vib)   ...       0.23 
freq.     359.38  E(vib)   ...       0.22 
freq.     370.16  E(vib)   ...       0.21 
freq.     384.19  E(vib)   ...       0.20 
freq.     394.85  E(vib)   ...       0.20 
freq.     399.01  E(vib)   ...       0.19 
freq.     400.61  E(vib)   ...       0.19 
freq.     403.16  E(vib)   ...       0.19 
freq.     405.77  E(vib)   ...       0.19 
freq.     415.87  E(vib)   ...       0.18 
freq.     418.22  E(vib)   ...       0.18 
freq.     419.70  E(vib)   ...       0.18 
freq.     420.10  E(vib)   ...       0.18 
freq.     431.26  E(vib)   ...       0.18 
freq.     432.85  E(vib)   ...       0.17 
freq.     440.27  E(vib)   ...       0.17 
freq.     469.96  E(vib)   ...       0.16 
freq.     473.03  E(vib)   ...       0.15 
freq.     474.75  E(vib)   ...       0.15 
freq.     476.77  E(vib)   ...       0.15 
freq.     482.46  E(vib)   ...       0.15 
freq.     499.66  E(vib)   ...       0.14 
freq.     518.91  E(vib)   ...       0.13 
freq.     537.22  E(vib)   ...       0.12 
freq.     624.02  E(vib)   ...       0.09 
freq.     671.60  E(vib)   ...       0.08 
freq.     676.50  E(vib)   ...       0.08 
freq.     681.93  E(vib)   ...       0.08 
freq.     684.78  E(vib)   ...       0.07 
freq.     685.87  E(vib)   ...       0.07 
freq.     687.06  E(vib)   ...       0.07 
freq.     690.21  E(vib)   ...       0.07 
freq.     693.88  E(vib)   ...       0.07 
freq.     699.45  E(vib)   ...       0.07 
freq.     701.95  E(vib)   ...       0.07 
freq.     706.20  E(vib)   ...       0.07 
freq.     724.61  E(vib)   ...       0.06 
freq.     726.40  E(vib)   ...       0.06 
freq.     732.06  E(vib)   ...       0.06 
freq.     733.26  E(vib)   ...       0.06 
freq.     734.06  E(vib)   ...       0.06 
freq.     734.46  E(vib)   ...       0.06 
freq.     735.71  E(vib)   ...       0.06 
freq.     737.95  E(vib)   ...       0.06 
freq.     738.09  E(vib)   ...       0.06 
freq.     738.23  E(vib)   ...       0.06 
freq.     739.34  E(vib)   ...       0.06 
freq.     739.82  E(vib)   ...       0.06 
freq.     741.08  E(vib)   ...       0.06 
freq.     741.15  E(vib)   ...       0.06 
freq.     742.69  E(vib)   ...       0.06 
freq.     747.16  E(vib)   ...       0.06 
freq.     775.24  E(vib)   ...       0.05 
freq.     994.72  E(vib)   ...       0.02 
freq.     995.79  E(vib)   ...       0.02 
freq.     999.33  E(vib)   ...       0.02 
freq.     999.68  E(vib)   ...       0.02 
freq.    1000.79  E(vib)   ...       0.02 
freq.    1001.31  E(vib)   ...       0.02 
freq.    1001.55  E(vib)   ...       0.02 
freq.    1003.00  E(vib)   ...       0.02 
freq.    1006.05  E(vib)   ...       0.02 
freq.    1006.27  E(vib)   ...       0.02 
freq.    1006.66  E(vib)   ...       0.02 
freq.    1007.23  E(vib)   ...       0.02 
freq.    1348.95  E(vib)   ...       0.01 
freq.    1350.34  E(vib)   ...       0.01 
freq.    1351.94  E(vib)   ...       0.01 
freq.    1354.53  E(vib)   ...       0.01 
freq.    1355.27  E(vib)   ...       0.01 
freq.    1355.46  E(vib)   ...       0.01 
freq.    1355.71  E(vib)   ...       0.01 
freq.    1356.65  E(vib)   ...       0.01 
freq.    1357.44  E(vib)   ...       0.01 
freq.    1357.99  E(vib)   ...       0.01 
freq.    1358.19  E(vib)   ...       0.01 
freq.    1358.93  E(vib)   ...       0.01 
freq.    1361.63  E(vib)   ...       0.01 
freq.    1361.74  E(vib)   ...       0.01 
freq.    1363.26  E(vib)   ...       0.01 
freq.    1364.93  E(vib)   ...       0.01 
freq.    1365.46  E(vib)   ...       0.01 
freq.    1365.90  E(vib)   ...       0.01 
freq.    1367.31  E(vib)   ...       0.01 
freq.    1367.59  E(vib)   ...       0.01 
freq.    1368.70  E(vib)   ...       0.01 
freq.    1371.99  E(vib)   ...       0.01 
freq.    1372.87  E(vib)   ...       0.01 
freq.    1380.94  E(vib)   ...       0.01 
freq.    1538.43  E(vib)   ...       0.00 
freq.    1546.71  E(vib)   ...       0.00 
freq.    1563.32  E(vib)   ...       0.00 
freq.    1565.10  E(vib)   ...       0.00 
freq.    1568.82  E(vib)   ...       0.00 
freq.    1576.62  E(vib)   ...       0.00 
freq.    1577.68  E(vib)   ...       0.00 
freq.    1631.33  E(vib)   ...       0.00 
freq.    1633.16  E(vib)   ...       0.00 
freq.    1637.06  E(vib)   ...       0.00 
freq.    1638.10  E(vib)   ...       0.00 
freq.    1639.34  E(vib)   ...       0.00 
freq.    1834.06  E(vib)   ...       0.00 
freq.    1861.70  E(vib)   ...       0.00 
freq.    1865.76  E(vib)   ...       0.00 
freq.    1866.86  E(vib)   ...       0.00 
freq.    1882.49  E(vib)   ...       0.00 
freq.    1897.23  E(vib)   ...       0.00 
freq.    1898.78  E(vib)   ...       0.00 
freq.    1902.91  E(vib)   ...       0.00 
freq.    1908.82  E(vib)   ...       0.00 
freq.    1960.79  E(vib)   ...       0.00 
freq.    1963.66  E(vib)   ...       0.00 
freq.    1992.62  E(vib)   ...       0.00 
freq.    2880.89  E(vib)   ...       0.00 
freq.    2886.86  E(vib)   ...       0.00 
freq.    2891.60  E(vib)   ...       0.00 
freq.    2892.05  E(vib)   ...       0.00 
freq.    2895.22  E(vib)   ...       0.00 
freq.    2898.70  E(vib)   ...       0.00 
freq.    2905.22  E(vib)   ...       0.00 
freq.    2906.52  E(vib)   ...       0.00 
freq.    2906.80  E(vib)   ...       0.00 
freq.    2907.59  E(vib)   ...       0.00 
freq.    2908.53  E(vib)   ...       0.00 
freq.    2910.37  E(vib)   ...       0.00 

------------
INNER ENERGY
------------

The inner energy is: U= E(el) + E(ZPE) + E(vib) + E(rot) + E(trans)
    E(el)   - is the total energy from the electronic structure calculation
              = E(kin-el) + E(nuc-el) + E(el-el) + E(nuc-nuc)
    E(ZPE)  - the the zero temperature vibrational energy from the frequency calculation
    E(vib)  - the the finite temperature correction to E(ZPE) due to population
              of excited vibrational states
    E(rot)  - is the rotational thermal energy
    E(trans)- is the translational thermal energy

Summary of contributions to the inner energy U:
Electronic energy                ...  -3976.49806252 Eh
Zero point energy                ...      0.38907157 Eh     244.15 kcal/mol
Thermal vibrational correction   ...      0.06466385 Eh      40.58 kcal/mol
Thermal rotational correction    ...      0.00141627 Eh       0.89 kcal/mol
Thermal translational correction ...      0.00141627 Eh       0.89 kcal/mol
-----------------------------------------------------------------------
Total thermal energy                  -3976.04149456 Eh


Summary of corrections to the electronic energy:
(perhaps to be used in another calculation)
Total thermal correction                  0.06749640 Eh      42.35 kcal/mol
Non-thermal (ZPE) correction              0.38907157 Eh     244.15 kcal/mol
-----------------------------------------------------------------------
Total correction                          0.45656796 Eh     286.50 kcal/mol


--------
ENTHALPY
--------

The enthalpy is H = U + kB*T
                kB is Boltzmann's constant
Total thermal energy              ...  -3976.04149456 Eh 
Thermal Enthalpy correction       ...      0.00094421 Eh       0.59 kcal/mol
-----------------------------------------------------------------------
Total Enthalpy                    ...  -3976.04055035 Eh


Note: Only C1 symmetry has been detected, increase convergence thresholds 
      if your molecule has a higher symmetry. Symmetry factor of 1.0 is   
      used for the rotational entropy correction. 
 

Note: Rotational entropy computed according to Herzberg 
Infrared and Raman Spectra, Chapter V,1, Van Nostrand Reinhold, 1945 
Point Group:  C1, Symmetry Number:   1  
Rotational constants in cm-1:     0.001706     0.001162     0.001136 

Vibrational entropy computed according to the QRRHO of S. Grimme
Chem.Eur.J. 2012 18 9955 using a reference frequency of 100.0 cm-1


-------
ENTROPY
-------

The entropy contributions are T*S = T*(S(el)+S(vib)+S(rot)+S(trans))
     S(el)   - electronic entropy
     S(vib)  - vibrational entropy
     S(rot)  - rotational entropy
     S(trans)- translational entropy
The entropies will be listed as multiplied by the temperature to get
units of energy

Electronic entropy                ...      0.00000000 Eh      0.00 kcal/mol
Vibrational entropy               ...      0.11635854 Eh     73.02 kcal/mol
Rotational entropy                ...      0.01891099 Eh     11.87 kcal/mol
Translational entropy             ...      0.02250776 Eh     14.12 kcal/mol
-----------------------------------------------------------------------
Final entropy term                ...      0.15777729 Eh     99.01 kcal/mol

In case the symmetry of your molecule has not been determined correctly
or in case you have a reason to use a different symmetry number we print 
out the resulting rotational entropy values for sn=1,12:

 non-linear molecules -----------------------------------
|  sn= 1 | S(rot)=       0.01891099 Eh     11.87 kcal/mol|
|  sn= 2 | S(rot)=       0.01825653 Eh     11.46 kcal/mol|
|  sn= 3 | S(rot)=       0.01787370 Eh     11.22 kcal/mol|
|  sn= 4 | S(rot)=       0.01760207 Eh     11.05 kcal/mol|
|  sn= 5 | S(rot)=       0.01739139 Eh     10.91 kcal/mol|
|  sn= 6 | S(rot)=       0.01721924 Eh     10.81 kcal/mol|
|  sn= 7 | S(rot)=       0.01707370 Eh     10.71 kcal/mol|
|  sn= 8 | S(rot)=       0.01694762 Eh     10.63 kcal/mol|
|  sn= 9 | S(rot)=       0.01683641 Eh     10.56 kcal/mol|
|  sn=10 | S(rot)=       0.01673693 Eh     10.50 kcal/mol|
|  sn=11 | S(rot)=       0.01664694 Eh     10.45 kcal/mol|
|  sn=12 | S(rot)=       0.01656478 Eh     10.39 kcal/mol|
 linear molecules ---------------------------------------
|  Dinfh | S(rot)=       0.01172731 Eh      7.36 kcal/mol|
|  Cinfv | S(rot)=       0.01238177 Eh      7.77 kcal/mol|
 --------------------------------------------------------


-------------------
GIBBS FREE ENERGY
-------------------

The Gibbs free energy is G = H - T*S

Total enthalpy                    ...  -3976.04055035 Eh 
Total entropy correction          ...     -0.15777729 Eh    -99.01 kcal/mol
-----------------------------------------------------------------------
Final Gibbs free energy         ...  -3976.19832764 Eh

For completeness - the Gibbs free energy minus the electronic energy
G-E(el)                           ...      0.29973488 Eh    188.09 kcal/mol


Maximum memory used throughout the entire PROP-calculation: 152.0 MB

--------------------------------
SUGGESTED CITATIONS FOR THIS RUN
--------------------------------

Below you find a list of papers that are relevant to this ORCA run
We neither can nor want to force you to cite these papers, but we appreciate if you do
You receive ORCA, which is the product of decades of hard work by many enthusiastic individuals, for free
The only thing we kindly ask in return is that you cite our papers,
We deeply appreciate it, if you show your appreciation for ORCA by not just citing the generic ORCA reference.

Please note that relegating all ORCA citations to the supporting information does *not* help us.
SI sections are not indexed - citations you put there will not count into any citation statistics
But we need these citations in order to attract the funding resources that allow us to do what we are doing

Therefore, if you are a happy ORCA user, please consider citing a few of the papers listed below in the main body of your paper

In addition to the list printed below, the program has created the file run.bibtex that contains the list in bibtex format
You can import this file easily into all common literature databanks and citation aid programs


List of essential papers. We consider these as the minimum necessary citations

  1. Neese, F.
     Software update: the ORCA program system, version 6.0
     WIRES Comput. Molec. Sci. 2025 15(1), e70019
     doi.org/10.1002/wcms.7019

List of papers to cite with high priority. The work reported in these papers was absolutely
necessary for this run to complete.
Our perspective: the developers of density functionals and basis sets usually get cited in chemistry papers
Good! But without the algorithms to do something with them, the functionals or basis sets would not do anything.
Hence, in our opinion, the algorithm design and method developments papers are equally worthy of getting cited

  1. Neese, F.
     An improvement of the resolution of the identity approximation for the formation of the Coulomb matrix
     J. Comp. Chem. 2003 24(14), 1740-1747
     doi.org/10.1002/jcc.10318
  2. Grimme, S.; Antony, J.; Ehrlich, S.; Krieg, H.
     A consistent and accurate ab initio parametrization of density functional dispersion correction (DFT-D) for the 94 elements H-Pu
     J. Chem. Phys. 2010 132 , 154104
     doi.org/10.1063/1.3382344
  3. Grimme, S.; Ehrlich, S.; Goerigk, L.
     Effect of the damping function in dispersion corrected density functional theory
     J. Comput. Chem. 2011 32(7), 1456-1465
     doi.org/10.1002/jcc.21759
  4. Bykov, D.; Petrenko, T.; Izsak, R.; Kossmann, S.; Becker, U.; Valeev, E.; Neese, F.
     Efficient implementation of the analytic second derivatives of Hartree-Fock and hybrid DFT energies: a detailed analysis of different approximations
     Molec. Phys. 2015 113 , 1961-1977
     doi.org/10.1080/00268976.2015.1025114
  5. Helmich-Paris, B.
     A trust-region augmented Hessian implementation for restricted and unrestricted Hartree–Fock and Kohn–Sham methods
     J. Chem. Phys. 2021 154 , 164104
     doi.org/10.1063/5.0040798
  6. Neese, F.
     The SHARK Integral Generation and Digestion System
     J. Comp. Chem. 2022 44(3), 381
     doi.org/10.1002/jcc.26942

List of suggested additional citations. These are papers that are important in the 'surrounding' of 
of this run, or papers that preceded the highly important papers. If you like your results we are grateful for a citation.

  1. Neese, F.
     The ORCA program system
     WIRES Comput. Molec. Sci. 2012 2(1), 73-78
     doi.org/10.1002/wcms.81
  2. Neese, F.
     Software update: the ORCA program system, version 4.0
     WIRES Comput. Molec. Sci. 2018 8(1), 1-6
     doi.org/10.1002/wcms.1327
  3. Neese, F.; Wennmohs, F.; Becker, U.; Riplinger, C.
     The ORCA quantum chemistry program package
     J. Chem. Phys. 2020 152(22), 224108
     doi.org/10.1063/5.0004608
  4. Neese, F.
     Software update: The ORCA program system—Version 5.0
     WIRES Comput. Molec. Sci. 2022 12(1), e1606
     doi.org/10.1002/wcms.1606

List of optional additional citations

  1. Neese, F.
     Approximate second-order SCF convergence for spin unrestricted wavefunctions
     Chem. Phys. Lett. 2000 325(1-3), 93-98
     doi.org/10.1016/s0009-2614(00)00662-x

Timings for individual modules:

Sum of individual times          ...     8831.721 sec (= 147.195 min)
Startup calculation              ...      342.358 sec (=   5.706 min)   3.9 %
SCF iterations                   ...     1900.164 sec (=  31.669 min)  21.5 %
Property integrals               ...     2256.799 sec (=  37.613 min)  25.6 %
SCF Response                     ...     1488.424 sec (=  24.807 min)  16.9 %
Property calculations            ...     2004.355 sec (=  33.406 min)  22.7 %
SCF Gradient evaluation          ...      826.435 sec (=  13.774 min)   9.4 %
Geometry relaxation              ...       13.187 sec (=   0.220 min)   0.1 %
                             ****ORCA TERMINATED NORMALLY****
TOTAL RUN TIME: 0 days 2 hours 27 minutes 32 seconds 373 msec
