
                                 *****************
                                 * O   R   C   A *
                                 *****************

                                            #,                                       
                                            ###                                      
                                            ####                                     
                                            #####                                    
                                            ######                                   
                                           ########,                                 
                                     ,,################,,,,,                         
                               ,,#################################,,                 
                          ,,##########################################,,             
                       ,#########################################, ''#####,          
                    ,#############################################,,   '####,        
                  ,##################################################,,,,####,       
                ,###########''''           ''''###############################       
              ,#####''   ,,,,##########,,,,          '''####'''          '####       
            ,##' ,,,,###########################,,,                        '##       
           ' ,,###''''                  '''############,,,                           
         ,,##''                                '''############,,,,        ,,,,,,###''
      ,#''                                            '''#######################'''  
     '                                                          ''''####''''         
             ,#######,   #######,   ,#######,      ##                                
            ,#'     '#,  ##    ##  ,#'     '#,    #''#        ,####,    ,#,          
            ##       ##  ##   ,#'  ##            #'  '#       #'       ,# #          
            ##       ##  #######   ##           ,######,      #####,      #          
            '#,     ,#'  ##    ##  '#,     ,#' ,#      #,     #,   #      #          
             '#######'   ##     ##  '#######'  #'      '#     '####' #    #          



                #########################################################
                #                        -***-                          #
                #          Department of theory and spectroscopy        #
                #                                                       #
                #                      Frank Neese                      #
                #                                                       #
                #     Directorship, Architecture, Infrastructure        #
                #                    SHARK, DRIVERS                     #
                #        Core code/Algorithms in most modules           #
                #                                                       #
                #        Max Planck Institute fuer Kohlenforschung      #
                #                Kaiser Wilhelm Platz 1                 #
                #                 D-45470 Muelheim/Ruhr                 #
                #                      Germany                          #
                #                                                       #
                #                  All rights reserved                  #
                #                        -***-                          #
                #########################################################


                         Program Version 6.1.0  -  RELEASE   -
                                (GIT: $679e74b$)
                          ($2025-06-10 18:02:51 +0200$)


 With contributions from (in alphabetic order):
[Max-Planck-Institut fuer Kohlenforschung]                               
  Daniel Aravena         : Magnetic Suceptibility                        
  Michael Atanasov       : Ab Initio Ligand Field Theory (pilot matlab implementation)
  Alexander A. Auer      : GIAO ZORA, VPT2 properties, NMR spectrum      
  Ute Becker             : All parallelization in ORCA, NUMFREQ, NUMCALC 
  Giovanni Bistoni       : ED, misc. LED, open-shell LED, HFLD           
  Dmytro Bykov           : pre 5.0 version of the SCF Hessian            
  Marcos Casanova-Páez   : Triplet and SCS-CIS(D). UHF-(DLPNO)-IP/EA/STEOM-CCSD. UHF-CVS-IP/STEOM-CCSD   
  Vijay G. Chilkuri      : MRCI spin determinant printing, contributions to CSF-ICE 
  Pauline Colinet        : FMM embedding                                 
  Dipayan Datta          : RHF DLPNO-CCSD density                        
  Achintya Kumar Dutta   : EOM-CC, STEOM-CC                              
  Nicolas Foglia         : Exact transition moments, OPA infrastructure, MCD improvements    
  Dmitry Ganyushin       : Spin-Orbit,Spin-Spin,Magnetic field MRCI      
  Miquel Garcia-Rates    : C-PCM and meta-GGA Hessian, CCSD/C-PCM, Gaussian charge scheme 
  Tiago L. C. Gouveia    : GS-ROHF, GS-ROCIS                             
  Yang Guo               : DLPNO-NEVPT2, F12-NEVPT2, CIM, IAO-localization        
  Andreas Hansen         : Spin unrestricted coupled pair/coupled cluster methods 
  Ingolf Harden          : AUTO-CI MPn and infrastructure                
  Benjamin Helmich-Paris : MC-RPA, TRAH-(SCF,CASSCF), AVAS, COSX integrals, SCF dyn. polar., MC-PDFT, srDFT 
  Lee Huntington         : MR-EOM, pCC                                   
  Robert Izsak           : Overlap fitted RIJCOSX, COSX-SCS-MP3, EOM     
  Riya Kayal             : Wick's Theorem for AUTO-CI, AUTO-CI UHF-CCSDT 
  Emily Kempfer          : AUTO-CI RHF CISDT and CCSDT, approximate NEVPT4
  Christian Kollmar      : KDIIS, OOCD, Brueckner-CCSD(T), CCSD density, CASPT2, CASPT2-K, improved NEVPT2 
  Axel Koslowski         : Symmetry handling                             
  Simone Kossmann        : meta-GGA functionals, TD-DFT gradient, OOMP2, (MP2 Hessian; deprecated post 5.0) 
  Lucas Lang             : DCDCAS, Hyperfine gauge corrections, ICE-SOC+SSC
  Marvin Lechner         : AUTO-CI (C++ implementation), FIC-MRCC        
  Spencer Leger          : CASSCF response                               
  Dagmar Lenk            : GEPOL surface, SMD, ORCA-2-JSON               
  Dimitrios Liakos       : Extrapolation schemes; Compound Job, Property file
  Dimitrios Manganas     : Further ROCIS development; embedding schemes. LFT, Crystal Embedding 
  Dimitrios Pantazis     : SARC Basis sets                               
  Anastasios Papadopoulos: AUTO-CI, single reference methods and gradients 
  Taras Petrenko         : pre 6.0 DFT Hessian and TD-DFT gradient,  ECA, NRVS 
  Petra Pikulova         : Analytic Raman intensities                    
  Peter Pinski           : DLPNO-MP2, DLPNO-MP2 Gradient                 
  Shashank Vittal Rao    : ES-AILFT, MagRelax                            
  Christoph Reimann      : Effective Core Potentials                     
  Marius Retegan         : Local ZFS, SOC                                
  Christoph Riplinger    : Optimizer, TS searches, QM/MM, DLPNO-CCSD(T), (RO)-DLPNO pert. Triples 
  Michael Roemelt        : Original ROCIS implementation, recursive CI coupling coefficients
  Masaaki Saitow         : Open-shell DLPNO-CCSD energy and density      
  Barbara Sandhoefer     : DKH picture change effects                    
  Yorick L. A. Schmerwitz: GMF and freeze-and-release deltaSCF, NEB S-IDPP initial path                    
  Kantharuban Sivalingam : CASSCF convergence/infrastructure, NEVPT2, NEVPT3, NEVPT4(SD), FIC-MRCI and CEPA variants
  Bernardo de Souza      : ESD, SOC TD-DFT                               
  Georgi L. Stoychev     : AutoAux, RI-MP2 NMR, DLPNO-MP2 response, X2C  
  Van Anh Tran           : RI-MP2 g-tensors                              
  Willem Van den Heuvel  : Paramagnetic NMR                              
  Zikuan Wang            : NOTCH, Electric field optimization            
  Frank Wennmohs         : Technical directorship and infrastructure     
  Hang Xu                : AUTO-CI-Response properties                   
                                                                         
[FACCTs GmbH]                                                            
  Markus Bursch, Nicolas Foglia, Miquel Garcia-Rates, Ingolf Harden, Hagen Neugebauer, Anastasios Papadopoulos, 
  Christoph Riplinger, Bernardo de Souza, Georgi L. Stoychev                                                    
                                                                 
  APM, various basis sets, CI-OPT, improved COSX, DLPNO-Multilevel,           
  DOCKER, DRACO, updates on ESD, Fragmentator, GOAT, IRC, LR-CPCM, L-BFGS, MBIS, meta-GGA TD-DFT gradient, ML-optimized integration grids, 
  MM, NACMEs, nearIR, NEB, NEB-TS, NL-DFT gradient (VV10), 2- and 3-layer-ONIOM, interface openCOSMO-RS, QMMM,   
  Crystal-QMMM, RESP, rigid body optimization, SF, symmetry and pop. for TD-DFT, various functionals, SOLVATOR                                   
                                                                         
[Other institutions]                                                     
  V. Asgeirsson          : NEB                                           
  Christoph Bannwarth    : sTDA-DFT, sTD-DFT, PBEh-3c, B97-3c, D3        
  Giovanni Bistoni       : ETS/NOCV, ADLD/ADEX, COVALED                  
  Martin Brehm           : Molecular dynamics                            
  Ronald Cardenas        : ETS/NOCV                                      
  Martina Colucci        : COVALED                                       
  Sebastian Ehlert       : rSCAN, r2SCAN, r2SCAN-3c, D4, dhf basis sets  
  Marvin Friede          : D4 for Fr, Ra, Ac-Lr                          
  Lars Goerigk           : TD-DFT with DH, B97 family of functionals     
  Stefan Grimme          : VdW corrections, initial TS optimization, DFT functionals, gCP, sTDA/sTD-DF 
  Waldemar Hujo          : DFT-NL                                        
  H. Jonsson             : NEB                                           
  Holger Kruse           : gCP                                           
  Marcel Mueller         : wB97X-3c, vDZP basis set                      
  Hagen Neugebauer       : wr2SCAN, Native XTB                           
  Gianluca Regni         : ADLD/ADEX                                     
  Tobias Risthaus        : pre 6.0 range-separated hybrid DFT and stability analysis
  Lukas Wittmann         : regularized MP2, r2SCAN double-hybrids, wr2SCAN        
                                                                         
We gratefully acknowledge several colleagues who have allowed us to      
interface, adapt or use parts of their codes:                            
  Ed Valeev, F. Pavosevic, A. Kumar             : LibInt (2-el integral package), F12 methods 
  Garnet Chan, S. Sharma, J. Yang, R. Olivares  : DMRG                   
  Ulf Ekstrom                                   : XCFun DFT Library      
  Mihaly Kallay                                 : mrcc  (arbitrary order and MRCC methods)
  Frank Weinhold                                : gennbo (NPA and NBO analysis)           
  Simon Mueller                                 : openCOSMO-RS                            
  Christopher J. Cramer and Donald G. Truhlar   : smd solvation model                     
  S Lehtola, MJT Oliveira, MAL Marques          : LibXC Library                           
  Liviu Ungur et al                             : ANISO software                          


 Your calculation uses the libint2 library for the computation of 2-el integrals
 For citations please refer to: http://libint.valeyev.net

 Your ORCA version has been built with support for libXC version: 7.0.0
 For citations please refer to: https://libxc.gitlab.io

 This ORCA versions uses:
   CBLAS   interface :  Fast vector & matrix operations
   LAPACKE interface :  Fast linear algebra routines
   SCALAPACK package :  Parallel linear algebra routines
   Shared memory     :  Shared parallel matrices
   BLAS/LAPACK       :  OpenBLAS 0.3.29  USE64BITINT DYNAMIC_ARCH NO_AFFINITY Bulldozer SINGLE_THREADED
        Core in use  :  Bulldozer
   Copyright (c) 2011-2014, The OpenBLAS Project


  ***********************************
  * Starting time: Fri Aug  8 15:33:52 2025
  * Host name:     chromium12
  * Process ID:    72698
  * Working dir.:  /local/scratch/mehlhorn/61787
  ***********************************



***************************************
The coordinates will be read from file: start.xyz
***************************************


Your calculation utilizes the geometrical counterpoise correction gCP
Please cite in your paper:
H.Kruse, S. Grimme J.Chem.Phys., 136, (2012), 154101 
   

Your calculation utilizes the atom-pairwise dispersion correction
with the Becke-Johnson damping scheme (D3BJ)


Warning: RI is on but no J-basis has been assigned. Assigning Def2/J (nothing to worry about!)
================================================================================

cite the ECPs for Zr [Def2-ECP] as follows:
Ce-Yb(ecp-28): M. Dolg, H. Stoll, H.Preuss, J. Chem. Phys., 1989, 90, 1730-1734.
Y-Cd(ecp-28), Hf-Hg(ecp-46): D. Andrae,U. Haeussermann, M. Dolg, H. Stoll, H. Preuss, Theor. Chim. Acta, 1990, 77, 123-141.
In-Sb(ecp-28), Tl-Bi(ecp-46): B. Metz, H. Stoll, M. Dolg, J. Chem. Phys., 2000, 113, 2563-2569.
Te-Xe(ecp-28), Po-Rn(ecp-46): K. A. Peterson, D. Figgen, E. Goll, H. Stoll, M. Dolg, J. Chem. Phys., 2003, 119, 11113-11123.
Rb(ecp-28), Cs(ecp-46): T. Leininger, A. Nicklass, W. Kuechle, H. Stoll, M. Dolg, A. Bergner, Chem. Phys. Lett., 1996, 255, 274-280.
Sr(ecp-28), Ba(ecp-46): M. Kaupp, P. V. Schleyer, H. Stoll and H. Preuss, J. Chem. Phys., 1991, 94, 1360-1366.
La(ecp-46): M. Dolg, H. Stoll, A. Savin, H. Preuss, Theor. Chim. Acta, 1989, 75, 173-194.
Lu(ecp-28): X. Cao, M. Dolg, J. Chem. Phys., 2001, 115, 7348-7355.

ECP parameters for Zr [Def2-ECP] have been obtained from:
TURBOMOLE (7.0.2)

----- Orbital basis set information -----
Your calculation utilizes the basis: def2-SV(P)
   F. Weigend and R. Ahlrichs, Phys. Chem. Chem. Phys. 7, 3297 (2005).

----- AuxJ basis set information -----
Your calculation utilizes the auxiliary basis: def2/J
   H-Rn: F. Weigend, Phys. Chem. Chem. Phys. 8, 1057 (2006).
   Fr-Lr: K. Eichkorn, F. Weigend, O. Treutler, R. Ahlrichs; Theor. Chem. Acc. 97, 119 (1997).

================================================================================
                                        WARNINGS
                       Please study these warnings very carefully!
================================================================================


WARNING: Gradients are needed
  ===> : At least TightSCF should be used for SCF convergence

WARNING: Geometry Optimization
  ===> : Switching off AutoStart
         For restart on a previous wavefunction, please use MOREAD

================================================================================
                                       INPUT FILE
================================================================================
NAME = run.inp
|  1> # Geometry optimization for (AlH3)n cluster
|  2> 
|  3> %pal nprocs 24  end
|  4> 
|  5> %geom MaxIter 500 end
|  6> 
|  7> 
|  8> ! PBE def2-SV(P)
|  9> ! RKS	# closed shell for AlH3
| 10> ! D3    #  dispersion correction
| 11> ! gCP(DFT/SV(P))
| 12> ! Freq 	# Frequency analysis to check the stabiltity of the structures
| 13> 
| 14> ! NoPop # population analysis not necessary	
| 15> 
| 16> ! DEFGRID2
| 17> ! NormalSCF
| 18> ! SloppyOpt
| 19> 
| 20> ! SmallPrint
| 21> 
| 22> 
| 23> * xyzFile 0 1 start.xyz # only maingroup elements H and Al so there should be no net spin
| 24> 
| 25>                          ****END OF INPUT****
================================================================================

                       *****************************
                       * Geometry Optimization Run *
                       *****************************

Geometry optimization settings:
Update method            Update   .... BFGS
Choice of coordinates    CoordSys .... (2022) Redundant Internals
Initial Hessian          InHess   .... Almloef's Model
Max. no of cycles        MaxIter  .... 500

Convergence Tolerances:
Energy Change            TolE     ....  8.0000e-05 Eh
Max. Gradient            TolMAXG  ....  5.0000e-03 Eh/bohr
RMS Gradient             TolRMSG  ....  1.0000e-03 Eh/bohr
Max. Displacement        TolMAXD  ....  3.0000e-02 bohr
RMS Displacement         TolRMSD  ....  2.0000e-02 bohr
Strict Convergence                .... False

------------------------------------------------------------------------------
                        ORCA OPTIMIZATION COORDINATE SETUP
------------------------------------------------------------------------------

The optimization will be done in redundant internal coordinates (2022)
Making redundant internal coordinates   ...  (2022 redundants) done
Evaluating the initial hessian          ...  (Almloef) done
Evaluating the coordinates              ...  done
Calculating the B-matrix                .... done
Calculating the G-matrix                .... done
The number of degrees of freedom        ....  668

    -----------------------------------------------------------------
                    Redundant Internal Coordinates


    -----------------------------------------------------------------
         Definition                    Initial Value    Approx d2E/dq
    -----------------------------------------------------------------
      1. B(Zr  2,Zr  1)                  3.4238         0.036411   
      2. B(Zr  3,Zr  0)                  3.4215         0.036714   
      3. B(Zr  4,Zr  3)                  3.4207         0.036829   
      4. B(Zr  4,Zr  1)                  3.4204         0.036862   
      5. B(Zr  5,Zr  2)                  3.4212         0.036754   
      6. B(Zr  5,Zr  0)                  3.4231         0.036499   
      7. B(O   6,Zr  0)                  2.0992         0.418360   
      8. B(O   6,Zr  3)                  2.1448         0.353868   
      9. B(O   6,Zr  5)                  2.1319         0.371015   
     10. B(O   7,Zr  2)                  2.1424         0.356946   
     11. B(O   7,Zr  4)                  2.1296         0.374179   
     12. B(O   7,Zr  1)                  2.0988         0.418960   
     13. B(O   8,Zr  5)                  2.1462         0.351938   
     14. B(O   8,Zr  2)                  2.0989         0.418815   
     15. B(O   8,Zr  1)                  2.1331         0.369404   
     16. B(O   9,Zr  4)                  2.1447         0.354001   
     17. B(O   9,Zr  3)                  2.0980         0.420231   
     18. B(O   9,Zr  0)                  2.1291         0.374758   
     19. B(O  10,Zr  4)                  2.0972         0.421342   
     20. B(O  10,Zr  3)                  2.1285         0.375610   
     21. B(O  10,Zr  1)                  2.1432         0.355895   
     22. B(O  11,Zr  2)                  2.1289         0.375119   
     23. B(O  11,Zr  0)                  2.1443         0.354497   
     24. B(O  11,Zr  5)                  2.0972         0.421342   
     25. B(O  12,Zr  0)                  1.9684         0.676504   
     26. B(O  13,Zr  0)                  1.9776         0.653906   
     27. B(O  14,Zr  0)                  2.0716         0.462950   
     28. B(O  15,Zr  0)                  2.0387         0.522506   
     29. B(O  16,Zr  1)                  2.0374         0.524876   
     30. B(O  17,Zr  1)                  2.0752         0.456852   
     31. B(O  18,Zr  1)                  1.9785         0.651787   
     32. B(O  19,Zr  1)                  1.9688         0.675377   
     33. B(O  20,Zr  2)                  1.9766         0.656339   
     34. B(O  21,Zr  2)                  2.0394         0.521126   
     35. B(O  22,Zr  2)                  1.9684         0.676345   
     36. B(O  23,Zr  2)                  2.0723         0.461695   
     37. B(O  24,Zr  3)                  2.0699         0.465889   
     38. B(O  25,Zr  3)                  1.9686         0.675983   
     39. B(O  26,Zr  3)                  2.0392         0.521418   
     40. B(O  27,Zr  3)                  1.9776         0.653995   
     41. B(O  28,Zr  4)                  1.9686         0.675828   
     42. B(O  29,Zr  4)                  2.0700         0.465633   
     43. B(O  30,Zr  4)                  1.9771         0.655076   
     44. B(O  31,Zr  4)                  2.0392         0.521486   
     45. B(O  32,Zr  5)                  2.0394         0.521156   
     46. B(O  33,Zr  5)                  1.9785         0.651654   
     47. B(O  34,Zr  5)                  2.0683         0.468570   
     48. B(O  35,Zr  5)                  1.9676         0.678325   
     49. B(C  36,O  33)                  1.2982         0.784115   
     50. B(C  36,O  12)                  1.2979         0.784761   
     51. B(C  37,O  25)                  1.2981         0.784452   
     52. B(C  37,O  13)                  1.2983         0.783816   
     53. B(C  38,O  21)                  1.2970         0.787617   
     54. B(C  38,O  14)                  1.2991         0.781556   
     55. B(C  39,O  29)                  1.2991         0.781307   
     56. B(C  39,O  15)                  1.2970         0.787451   
     57. B(C  40,O  34)                  1.2989         0.782008   
     58. B(C  40,O  16)                  1.2970         0.787455   
     59. B(C  41,O  26)                  1.2970         0.787511   
     60. B(C  41,O  17)                  1.2992         0.781178   
     61. B(C  42,O  22)                  1.2981         0.784210   
     62. B(C  42,O  18)                  1.2985         0.783139   
     63. B(C  43,O  19)                  1.2981         0.784458   
     64. B(C  43,O  30)                  1.2982         0.783900   
     65. B(C  44,O  35)                  1.2980         0.784545   
     66. B(C  44,O  20)                  1.2984         0.783576   
     67. B(C  45,O  31)                  1.2971         0.787170   
     68. B(C  45,O  23)                  1.2992         0.781049   
     69. B(C  46,O  32)                  1.2970         0.787611   
     70. B(C  46,O  24)                  1.2991         0.781425   
     71. B(C  47,O  28)                  1.2981         0.784456   
     72. B(C  47,O  27)                  1.2982         0.783936   
     73. B(H  48,C  41)                  1.0867         0.364508   
     74. B(H  49,C  42)                  1.0898         0.360328   
     75. B(H  50,C  38)                  1.0867         0.364502   
     76. B(H  51,C  37)                  1.0898         0.360312   
     77. B(H  52,C  43)                  1.0898         0.360336   
     78. B(H  53,C  47)                  1.0898         0.360333   
     79. B(H  54,C  39)                  1.0867         0.364438   
     80. B(H  55,C  45)                  1.0868         0.364401   
     81. B(H  56,C  40)                  1.0867         0.364517   
     82. B(H  57,C  46)                  1.0867         0.364455   
     83. B(H  58,C  36)                  1.0898         0.360364   
     84. B(H  59,C  44)                  1.0900         0.360112   
     85. B(H  61,O  20)                  3.1274         0.010000   
     86. B(H  61,H  49)                  3.0509         0.010000   
     87. B(H  61,O   8)                  3.0333         0.010000   
     88. B(H  61,O  22)                  3.0008         0.010000   
     89. B(H  61,C  40)                  2.9876         0.010000   
     90. B(H  61,O  18)                  2.6673         0.010000   
     91. B(H  61,C  42)                  2.6470         0.010000   
     92. B(H  61,O  16)                  2.5082         0.010000   
     93. B(H  61,Al 60)                  1.5955         0.394080   
     94. B(H  62,H  59)                  3.0948         0.010000   
     95. B(H  62,H  56)                  3.0477         0.010000   
     96. B(H  62,Al 60)                  1.5968         0.392108   
     97. B(H  63,Al 60)                  1.5964         0.392706   
     98. A(Zr  5,Zr  0,O  14)          104.3285         0.340092   
     99. A(O  12,Zr  0,O  14)           81.1927         0.523303   
    100. A(O   9,Zr  0,O  15)           71.1323         0.479507   
    101. A(Zr  5,Zr  0,O  12)           74.8666         0.362601   
    102. A(O  13,Zr  0,O  14)          137.6031         0.519976   
    103. A(O  12,Zr  0,O  13)           82.9954         0.558612   
    104. A(Zr  3,Zr  0,O   6)           36.7262         0.334727   
    105. A(O  12,Zr  0,O  15)          124.2529         0.535364   
    106. A(O   6,Zr  0,O  15)          135.1136         0.489357   
    107. A(Zr  5,Zr  0,O  15)          159.5694         0.347064   
    108. A(Zr  3,Zr  0,Zr  5)           70.4225         0.247392   
    109. A(O   9,Zr  0,O  13)           92.0244         0.499846   
    110. A(O   6,Zr  0,O  13)           82.4760         0.510210   
    111. A(O  11,Zr  0,O  13)          144.5408         0.494710   
    112. A(O   6,Zr  0,O   9)           67.3881         0.460345   
    113. A(O   6,Zr  0,O  12)           95.4213         0.513461   
    114. A(O  14,Zr  0,O  15)           74.5853         0.498640   
    115. A(O  13,Zr  0,O  15)           82.5852         0.531944   
    116. A(O  11,Zr  0,O  15)          131.8702         0.474625   
    117. A(Zr  5,Zr  0,O  11)           35.7291         0.325371   
    118. A(O  11,Zr  0,O  14)           70.9990         0.464206   
    119. A(O   6,Zr  0,O  14)          137.9699         0.478540   
    120. A(Zr  5,Zr  0,O  13)          109.0277         0.360506   
    121. A(Zr  5,Zr  0,O   9)           91.2476         0.328364   
    122. A(Zr  3,Zr  0,O  13)           72.8944         0.360866   
    123. A(O   6,Zr  0,O  11)           67.0426         0.455703   
    124. A(Zr  3,Zr  0,O  11)           91.1305         0.325685   
    125. A(O   9,Zr  0,O  12)          162.6472         0.503018   
    126. A(Zr  5,Zr  0,O   6)           36.3200         0.334401   
    127. A(O   9,Zr  0,O  14)          112.8705         0.468956   
    128. A(Zr  3,Zr  0,O  15)           98.3874         0.347407   
    129. A(Zr  3,Zr  0,O  12)          127.5037         0.362965   
    130. A(Zr  3,Zr  0,O   9)           35.6549         0.328681   
    131. A(O  11,Zr  0,O  12)           82.3405         0.497842   
    132. A(O   9,Zr  0,O  11)           92.4854         0.446681   
    133. A(Zr  3,Zr  0,O  14)          144.7645         0.340425   
    134. A(Zr  4,Zr  1,O   7)           36.3130         0.335032   
    135. A(Zr  4,Zr  1,O  16)          159.6895         0.347908   
    136. A(O   7,Zr  1,O  19)           95.6448         0.513439   
    137. A(O   8,Zr  1,O  19)          162.8028         0.501516   
    138. A(O  17,Zr  1,O  19)           81.0057         0.521838   
    139. A(O   7,Zr  1,O  10)           67.0181         0.456149   
    140. A(O  10,Zr  1,O  16)          131.7122         0.475364   
    141. A(Zr  2,Zr  1,O   8)           35.6638         0.327455   
    142. A(Zr  4,Zr  1,O   8)           91.5312         0.328121   
    143. A(O   7,Zr  1,O  17)          137.7374         0.477498   
    144. A(Zr  4,Zr  1,O  17)          104.2027         0.339901   
    145. A(Zr  2,Zr  1,Zr  4)           70.4033         0.247450   
    146. A(O  10,Zr  1,O  17)           70.8037         0.463415   
    147. A(O  10,Zr  1,O  18)          144.0354         0.494774   
    148. A(Zr  4,Zr  1,O  19)           74.8174         0.363112   
    149. A(O  10,Zr  1,O  19)           82.1503         0.498052   
    150. A(O  17,Zr  1,O  18)          137.9744         0.518369   
    151. A(Zr  2,Zr  1,O  10)           91.2040         0.325453   
    152. A(O   8,Zr  1,O  18)           91.9334         0.498210   
    153. A(O  18,Zr  1,O  19)           82.8116         0.558090   
    154. A(O   7,Zr  1,O   8)           67.3553         0.459258   
    155. A(Zr  2,Zr  1,O   7)           36.6030         0.334347   
    156. A(Zr  2,Zr  1,O  18)           72.8175         0.360158   
    157. A(O   7,Zr  1,O  18)           82.2416         0.510037   
    158. A(O   7,Zr  1,O  16)          135.3456         0.489897   
    159. A(Zr  4,Zr  1,O  18)          108.4975         0.360915   
    160. A(O  16,Zr  1,O  18)           83.3389         0.532073   
    161. A(O   8,Zr  1,O  10)           92.9192         0.445836   
    162. A(O   8,Zr  1,O  16)           71.1714         0.478636   
    163. A(Zr  2,Zr  1,O  19)          127.5805         0.362349   
    164. A(Zr  2,Zr  1,O  17)          144.7454         0.339203   
    165. A(Zr  2,Zr  1,O  16)           98.7445         0.347188   
    166. A(O   8,Zr  1,O  17)          113.0318         0.466586   
    167. A(O  16,Zr  1,O  17)           74.3800         0.497831   
    168. A(O  16,Zr  1,O  19)          124.0390         0.535652   
    169. A(Zr  4,Zr  1,O  10)           35.7806         0.326113   
    170. A(O   7,Zr  2,O   8)           67.1821         0.456365   
    171. A(O  21,Zr  2,O  23)           74.6149         0.498144   
    172. A(Zr  5,Zr  2,O  21)           98.1749         0.347316   
    173. A(Zr  1,Zr  2,O  22)           74.8889         0.362438   
    174. A(Zr  5,Zr  2,O   8)           36.7732         0.334849   
    175. A(O   8,Zr  2,O  22)           95.5778         0.513543   
    176. A(O   8,Zr  2,O  20)           82.4238         0.510668   
    177. A(O  22,Zr  2,O  23)           80.9512         0.523013   
    178. A(O   7,Zr  2,O  22)           81.9481         0.498458   
    179. A(Zr  1,Zr  2,Zr  5)           70.2955         0.247345   
    180. A(O  11,Zr  2,O  20)           92.4027         0.500282   
    181. A(O  21,Zr  2,O  22)          124.3128         0.535073   
    182. A(Zr  5,Zr  2,O   7)           90.9532         0.326113   
    183. A(O  20,Zr  2,O  23)          137.6212         0.520074   
    184. A(O  11,Zr  2,O  23)          112.2630         0.468805   
    185. A(O   8,Zr  2,O  23)          138.1218         0.478396   
    186. A(Zr  1,Zr  2,O   7)           35.7416         0.325611   
    187. A(O  11,Zr  2,O  22)          163.0097         0.503086   
    188. A(O  20,Zr  2,O  22)           83.6419         0.558982   
    189. A(Zr  5,Zr  2,O  22)          128.0936         0.363018   
    190. A(O   8,Zr  2,O  11)           67.4860         0.460518   
    191. A(O   7,Zr  2,O  23)           71.0230         0.464560   
    192. A(O  20,Zr  2,O  21)           82.2599         0.532052   
    193. A(O   7,Zr  2,O  11)           92.1150         0.447317   
    194. A(O   8,Zr  2,O  21)          134.9448         0.489216   
    195. A(Zr  5,Zr  2,O  23)          144.2327         0.340333   
    196. A(Zr  1,Zr  2,O  11)           90.9776         0.328285   
    197. A(O  11,Zr  2,O  21)           71.1351         0.479358   
    198. A(Zr  5,Zr  2,O  11)           35.6390         0.328793   
    199. A(O   7,Zr  2,O  20)          144.6881         0.495685   
    200. A(Zr  5,Zr  2,O  20)           73.1971         0.361162   
    201. A(Zr  1,Zr  2,O  23)          104.4616         0.339800   
    202. A(Zr  1,Zr  2,O  21)          159.5008         0.346769   
    203. A(Zr  1,Zr  2,O  20)          109.1676         0.360586   
    204. A(Zr  1,Zr  2,O   8)           36.3361         0.334328   
    205. A(O   7,Zr  2,O  21)          132.0238         0.474996   
    206. A(O   6,Zr  3,O  10)           92.4160         0.446721   
    207. A(O   9,Zr  3,O  10)           67.3704         0.460912   
    208. A(Zr  4,Zr  3,O  10)           35.6486         0.328975   
    209. A(O   9,Zr  3,O  25)           95.6733         0.513816   
    210. A(Zr  0,Zr  3,Zr  4)           70.3563         0.247715   
    211. A(Zr  4,Zr  3,O  26)           98.1007         0.347469   
    212. A(O   6,Zr  3,O   9)           67.1228         0.455926   
    213. A(O  10,Zr  3,O  27)           92.5084         0.500070   
    214. A(O  26,Zr  3,O  27)           82.5777         0.531749   
    215. A(O  24,Zr  3,O  27)          137.9153         0.520607   
    216. A(O  25,Zr  3,O  27)           83.0898         0.558545   
    217. A(O   9,Zr  3,O  27)           82.2116         0.510648   
    218. A(Zr  0,Zr  3,O  25)           74.8575         0.362917   
    219. A(Zr  4,Zr  3,O   6)           91.1710         0.325758   
    220. A(Zr  0,Zr  3,O  24)          104.6419         0.340785   
    221. A(O  10,Zr  3,O  25)          162.9573         0.503159   
    222. A(O  24,Zr  3,O  25)           81.3281         0.523850   
    223. A(O   9,Zr  3,O  26)          134.8318         0.489573   
    224. A(Zr  4,Zr  3,O  25)          127.9580         0.363112   
    225. A(Zr  0,Zr  3,O  26)          159.7668         0.347285   
    226. A(O   6,Zr  3,O  25)           81.9218         0.497607   
    227. A(O   6,Zr  3,O  26)          132.3517         0.474288   
    228. A(O  10,Zr  3,O  26)           71.1224         0.479524   
    229. A(O  10,Zr  3,O  24)          112.1327         0.469696   
    230. A(O   9,Zr  3,O  24)          138.0459         0.479492   
    231. A(Zr  0,Zr  3,O   9)           36.2680         0.334975   
    232. A(Zr  4,Zr  3,O   9)           36.7327         0.335150   
    233. A(Zr  4,Zr  3,O  24)          144.1569         0.340965   
    234. A(O  25,Zr  3,O  26)          124.2050         0.535075   
    235. A(O  24,Zr  3,O  26)           74.6157         0.499034   
    236. A(Zr  0,Zr  3,O   6)           35.8232         0.325590   
    237. A(Zr  0,Zr  3,O  27)          108.5480         0.360874   
    238. A(Zr  0,Zr  3,O  10)           91.1248         0.328805   
    239. A(Zr  4,Zr  3,O  27)           73.0397         0.361068   
    240. A(O   6,Zr  3,O  24)           71.0427         0.464593   
    241. A(O   6,Zr  3,O  27)          144.1120         0.494560   
    242. A(Zr  1,Zr  4,Zr  3)           70.3409         0.247860   
    243. A(Zr  1,Zr  4,O  10)           36.6906         0.335348   
    244. A(O   9,Zr  4,O  10)           67.0868         0.456177   
    245. A(O   7,Zr  4,O  10)           67.2953         0.460812   
    246. A(Zr  3,Zr  4,O  10)           36.2638         0.335298   
    247. A(O  10,Zr  4,O  28)           95.5187         0.514048   
    248. A(O   9,Zr  4,O  29)           71.0276         0.464578   
    249. A(O  28,Zr  4,O  30)           83.0728         0.558696   
    250. A(O   7,Zr  4,O  31)           71.1423         0.479198   
    251. A(O  29,Zr  4,O  31)           74.6324         0.498995   
    252. A(O  30,Zr  4,O  31)           82.5936         0.531928   
    253. A(O  28,Zr  4,O  31)          124.4132         0.535065   
    254. A(O  10,Zr  4,O  31)          134.8506         0.489824   
    255. A(O   9,Zr  4,O  31)          132.1202         0.474332   
    256. A(Zr  3,Zr  4,O  31)          159.5914         0.347476   
    257. A(Zr  1,Zr  4,O  31)           98.1601         0.347529   
    258. A(O  29,Zr  4,O  30)          137.7399         0.520715   
    259. A(O  10,Zr  4,O  30)           82.3712         0.511058   
    260. A(O   9,Zr  4,O  30)          144.3056         0.494746   
    261. A(O   7,Zr  4,O  30)           92.5139         0.499869   
    262. A(Zr  3,Zr  4,O  30)          108.7461         0.361169   
    263. A(Zr  1,Zr  4,O  30)           73.0026         0.361225   
    264. A(O  28,Zr  4,O  29)           81.2882         0.523773   
    265. A(O  10,Zr  4,O  29)          138.0136         0.479677   
    266. A(O   7,Zr  4,O  29)          112.3479         0.469320   
    267. A(Zr  3,Zr  4,O  29)          104.5487         0.340933   
    268. A(Zr  1,Zr  4,O  29)          144.4393         0.340984   
    269. A(O   9,Zr  4,O  28)           81.9971         0.497620   
    270. A(O   7,Zr  4,O  28)          162.7264         0.502779   
    271. A(Zr  3,Zr  4,O  28)           74.7805         0.363098   
    272. A(O   7,Zr  4,O   9)           92.2672         0.446442   
    273. A(Zr  1,Zr  4,O  28)          127.6884         0.363153   
    274. A(Zr  3,Zr  4,O   9)           35.8075         0.325779   
    275. A(Zr  1,Zr  4,O   9)           91.1650         0.325827   
    276. A(Zr  1,Zr  4,O   7)           35.7069         0.328817   
    277. A(Zr  3,Zr  4,O   7)           91.0190         0.328768   
    278. A(O  34,Zr  5,O  35)           81.9276         0.524756   
    279. A(O  33,Zr  5,O  35)           82.6462         0.558531   
    280. A(O  32,Zr  5,O  35)          124.7347         0.535374   
    281. A(O   8,Zr  5,O  35)           82.2564         0.497421   
    282. A(O   6,Zr  5,O  35)          161.9233         0.502330   
    283. A(Zr  2,Zr  5,O  35)           74.6031         0.363199   
    284. A(Zr  0,Zr  5,O  35)          126.6937         0.362768   
    285. A(O  33,Zr  5,O  34)          137.4366         0.520818   
    286. A(O  32,Zr  5,O  34)           74.5316         0.499520   
    287. A(O  11,Zr  5,O  34)          137.9891         0.480234   
    288. A(O  32,Zr  5,O  33)           82.4086         0.531339   
    289. A(O   6,Zr  5,O  34)          112.9689         0.469130   
    290. A(Zr  2,Zr  5,O  34)          104.4154         0.341175   
    291. A(Zr  0,Zr  5,O  34)          144.8935         0.340778   
    292. A(O  11,Zr  5,O  33)           82.6858         0.510558   
    293. A(O   8,Zr  5,O  33)          144.8196         0.493730   
    294. A(O   6,Zr  5,O  33)           91.8472         0.498594   
    295. A(Zr  0,Zr  5,O  33)           72.8465         0.360294   
    296. A(O  11,Zr  5,O  32)          135.0554         0.489766   
    297. A(O   8,Zr  5,O  32)          131.8250         0.473768   
    298. A(O   6,Zr  5,O  32)           71.0854         0.478393   
    299. A(Zr  2,Zr  5,O  32)          159.4398         0.347320   
    300. A(Zr  0,Zr  5,O  32)           98.3978         0.346913   
    301. A(Zr  2,Zr  5,O   6)           91.1862         0.328197   
    302. A(Zr  0,Zr  5,O   6)           35.6768         0.327821   
    303. A(Zr  0,Zr  5,Zr  2)           70.3454         0.247431   
    304. A(O   8,Zr  5,O  34)           70.8771         0.464616   
    305. A(O   8,Zr  5,O  11)           67.1953         0.455691   
    306. A(O   6,Zr  5,O  11)           67.3041         0.460099   
    307. A(Zr  2,Zr  5,O  11)           36.2610         0.335184   
    308. A(Zr  0,Zr  5,O  11)           36.6586         0.334796   
    309. A(O  11,Zr  5,O  35)           94.8487         0.514403   
    310. A(O   6,Zr  5,O   8)           92.7888         0.445285   
    311. A(Zr  2,Zr  5,O  33)          109.2387         0.360721   
    312. A(Zr  2,Zr  5,O   8)           35.8340         0.325356   
    313. A(Zr  0,Zr  5,O   8)           91.4164         0.324984   
    314. A(Zr  3,O   6,Zr  5)          134.6846         0.445726   
    315. A(Zr  0,O   6,Zr  5)          108.0032         0.459503   
    316. A(Zr  0,O   6,Zr  3)          107.4506         0.455556   
    317. A(Zr  2,O   7,Zr  4)          134.9020         0.447113   
    318. A(Zr  1,O   7,Zr  4)          107.9800         0.460336   
    319. A(Zr  1,O   7,Zr  2)          107.6553         0.456394   
    320. A(Zr  1,O   8,Zr  2)          108.0001         0.459229   
    321. A(Zr  5,O   8,H  61)          120.6567         0.140069   
    322. A(Zr  2,O   8,H  61)           93.6353         0.142120   
    323. A(Zr  1,O   8,H  61)           85.0552         0.140632   
    324. A(Zr  2,O   8,Zr  5)          107.3928         0.455192   
    325. A(Zr  1,O   8,Zr  5)          134.1000         0.444934   
    326. A(Zr  3,O   9,Zr  4)          107.4598         0.455957   
    327. A(Zr  0,O   9,Zr  4)          134.5433         0.446567   
    328. A(Zr  0,O   9,Zr  3)          108.0772         0.460720   
    329. A(Zr  3,O  10,Zr  4)          108.0876         0.461134   
    330. A(Zr  1,O  10,Zr  4)          107.5288         0.456620   
    331. A(Zr  1,O  10,Zr  3)          134.5799         0.447184   
    332. A(Zr  2,O  11,Zr  5)          108.1000         0.461024   
    333. A(Zr  0,O  11,Zr  5)          107.6123         0.456293   
    334. A(Zr  0,O  11,Zr  2)          134.6339         0.446759   
    335. A(Zr  0,O  12,C  36)          131.0418         0.511734   
    336. A(Zr  0,O  13,C  37)          133.5123         0.508381   
    337. A(Zr  0,O  14,C  38)          140.1221         0.476595   
    338. A(Zr  0,O  15,C  39)          129.0339         0.488037   
    339. A(Zr  1,O  16,C  40)          129.0747         0.488446   
    340. A(C  40,O  16,H  61)           98.4189         0.170910   
    341. A(Zr  1,O  16,H  61)          102.3915         0.175510   
    342. A(Zr  1,O  17,C  41)          140.0620         0.475392   
    343. A(Zr  1,O  18,C  42)          133.5534         0.507991   
    344. A(C  42,O  18,H  61)           74.9894         0.160667   
    345. A(Zr  1,O  18,H  61)           98.7531         0.168593   
    346. A(Zr  1,O  19,C  43)          131.1205         0.511537   
    347. A(C  44,O  20,H  61)           84.6630         0.137892   
    348. A(Zr  2,O  20,H  61)           93.3655         0.143378   
    349. A(Zr  2,O  20,C  44)          133.1357         0.508705   
    350. A(Zr  2,O  21,C  38)          129.0250         0.487817   
    351. A(Zr  2,O  22,C  42)          131.0577         0.511644   
    352. A(C  42,O  22,H  61)           61.7864         0.143330   
    353. A(Zr  2,O  22,H  61)           97.4605         0.149827   
    354. A(Zr  2,O  23,C  45)          139.9768         0.476300   
    355. A(Zr  3,O  24,C  46)          139.9963         0.477136   
    356. A(Zr  3,O  25,C  37)          131.0069         0.511622   
    357. A(Zr  3,O  26,C  41)          128.8493         0.487855   
    358. A(Zr  3,O  27,C  47)          133.3626         0.508408   
    359. A(Zr  4,O  28,C  47)          131.1923         0.511601   
    360. A(Zr  4,O  29,C  39)          140.0410         0.477075   
    361. A(Zr  4,O  30,C  43)          133.4256         0.508561   
    362. A(Zr  4,O  31,C  45)          128.7801         0.487828   
    363. A(Zr  5,O  32,C  46)          129.0625         0.487821   
    364. A(Zr  5,O  33,C  36)          133.5746         0.508090   
    365. A(Zr  5,O  34,C  40)          140.7716         0.477706   
    366. A(Zr  5,O  35,C  44)          131.4086         0.511965   
    367. A(O  12,C  36,O  33)          127.4483         0.466549   
    368. A(O  33,C  36,H  58)          116.2605         0.365071   
    369. A(O  12,C  36,H  58)          116.2910         0.365123   
    370. A(O  13,C  37,O  25)          127.4643         0.466483   
    371. A(O  25,C  37,H  51)          116.2826         0.365089   
    372. A(O  13,C  37,H  51)          116.2530         0.365039   
    373. A(O  14,C  38,O  21)          129.3158         0.466580   
    374. A(O  21,C  38,H  50)          115.3279         0.366065   
    375. A(O  14,C  38,H  50)          115.3563         0.365581   
    376. A(O  15,C  39,O  29)          129.3274         0.466535   
    377. A(O  29,C  39,H  54)          115.3569         0.365550   
    378. A(O  15,C  39,H  54)          115.3157         0.366041   
    379. A(O  16,C  40,O  34)          129.3329         0.466612   
    380. A(H  56,C  40,H  61)          101.1345         0.130780   
    381. A(O  34,C  40,H  61)          112.7515         0.145944   
    382. A(O  16,C  40,H  61)           56.1481         0.146034   
    383. A(O  34,C  40,H  56)          115.3164         0.365620   
    384. A(O  16,C  40,H  56)          115.3492         0.366055   
    385. A(O  17,C  41,O  26)          129.3040         0.466528   
    386. A(O  26,C  41,H  48)          115.3270         0.366058   
    387. A(O  17,C  41,H  48)          115.3690         0.365552   
    388. A(O  18,C  42,O  22)          127.4480         0.466383   
    389. A(H  49,C  42,H  61)          101.1272         0.144312   
    390. A(O  22,C  42,H  61)           92.6095         0.164633   
    391. A(O  18,C  42,H  61)           76.7281         0.164610   
    392. A(O  22,C  42,H  49)          116.2776         0.365073   
    393. A(O  18,C  42,H  49)          116.2678         0.364987   
    394. A(O  30,C  43,H  52)          116.2461         0.365049   
    395. A(O  19,C  43,H  52)          116.2750         0.365094   
    396. A(O  19,C  43,O  30)          127.4787         0.466493   
    397. A(O  35,C  44,H  59)          116.2627         0.365062   
    398. A(O  20,C  44,H  59)          116.2761         0.364985   
    399. A(O  20,C  44,O  35)          127.4575         0.466467   
    400. A(O  31,C  45,H  55)          115.3283         0.366012   
    401. A(O  23,C  45,H  55)          115.3635         0.365523   
    402. A(O  23,C  45,O  31)          129.3082         0.466477   
    403. A(O  32,C  46,H  57)          115.3264         0.366057   
    404. A(O  24,C  46,H  57)          115.3738         0.365563   
    405. A(O  24,C  46,O  32)          129.2998         0.466566   
    406. A(O  28,C  47,H  53)          116.2732         0.365093   
    407. A(O  27,C  47,H  53)          116.2458         0.365052   
    408. A(O  27,C  47,O  28)          127.4809         0.466497   
    409. A(C  42,H  49,H  61)           58.3547         0.110745   
    410. A(C  40,H  56,H  62)           92.4477         0.110860   
    411. A(C  44,H  59,H  62)           90.9303         0.109963   
    412. A(H  62,Al 60,H  63)          116.2123         0.381719   
    413. A(H  61,Al 60,H  63)          115.0272         0.382052   
    414. A(H  61,Al 60,H  62)          113.5932         0.381951   
    415. A(O  20,H  61,H  49)           88.1607         0.092852   
    416. A(O   8,H  61,O  20)           51.6834         0.095850   
    417. A(O  20,H  61,O  22)           50.7891         0.096038   
    418. A(O  20,H  61,C  40)           93.5811         0.096381   
    419. A(O  18,H  61,O  20)           91.5378         0.098287   
    420. A(O  20,H  61,C  42)           76.1701         0.098797   
    421. A(O  16,H  61,O  20)          101.7438         0.099601   
    422. A(O  20,H  61,Al 60)           99.6974         0.132103   
    423. A(O  22,H  61,H  49)           39.2112         0.093279   
    424. A(C  40,H  61,H  49)          126.8961         0.093488   
    425. A(O  18,H  61,H  49)           40.9309         0.094647   
    426. A(C  42,H  61,H  49)           20.5180         0.094957   
    427. A(O  16,H  61,H  49)          102.6394         0.095446   
    428. A(H  49,H  61,Al 60)          130.7177         0.115208   
    429. A(O   8,H  61,O  22)           59.9268         0.096611   
    430. A(O   8,H  61,C  40)           52.4803         0.096982   
    431. A(O   8,H  61,O  18)           62.1221         0.099043   
    432. A(O   8,H  61,C  42)           70.4464         0.099595   
    433. A(O   8,H  61,O  16)           50.9026         0.100464   
    434. A(O   8,H  61,Al 60)          131.5612         0.135612   
    435. A(O  22,H  61,C  40)          110.6149         0.097201   
    436. A(O  18,H  61,O  22)           48.0643         0.099317   
    437. A(O  22,H  61,C  42)           25.6041         0.099885   
    438. A(O  16,H  61,O  22)           97.0208         0.100777   
    439. A(O   8,H  61,H  49)           90.9543         0.093165   
    440. A(O  22,H  61,Al 60)          136.4558         0.136888   
    441. A(O  18,H  61,C  40)           85.9739         0.099821   
    442. A(C  40,H  61,C  42)          110.2841         0.100416   
    443. A(O  16,H  61,C  40)           25.4330         0.101352   
    444. A(C  40,H  61,Al 60)          101.2828         0.139224   
    445. A(O  18,H  61,C  42)           28.2824         0.103363   
    446. A(O  16,H  61,O  18)           62.0314         0.104540   
    447. A(O  18,H  61,Al 60)          166.1352         0.152188   
    448. A(O  16,H  61,C  42)           88.6925         0.105395   
    449. A(C  42,H  61,Al 60)          148.3139         0.155665   
    450. A(O  16,H  61,Al 60)          122.6003         0.161130   
    451. A(H  56,H  62,H  59)          113.8311         0.091264   
    452. A(H  59,H  62,Al 60)           84.4445         0.114240   
    453. A(H  56,H  62,Al 60)           98.0857         0.115249   
    454. D(O   7,Zr  2,Zr  1,Zr  4)    -17.2232         0.010000   
    455. D(Zr  5,Zr  2,Zr  1,O   7)    121.8632         0.010000   
    456. D(Zr  5,Zr  2,Zr  1,Zr  4)    104.6400         0.010000   
    457. D(Zr  4,Zr  3,Zr  0,O   6)   -122.1116         0.010000   
    458. D(O   6,Zr  3,Zr  0,Zr  5)     17.5647         0.010000   
    459. D(Zr  4,Zr  3,Zr  0,Zr  5)   -104.5469         0.010000   
    460. D(Zr  3,Zr  4,Zr  1,Zr  2)   -104.6190         0.010000   
    461. D(O   7,Zr  4,Zr  1,Zr  2)     17.3453         0.010000   
    462. D(Zr  1,Zr  4,Zr  3,O   6)     74.7988         0.010000   
    463. D(Zr  3,Zr  4,Zr  1,O   7)   -121.9643         0.010000   
    464. D(Zr  1,Zr  4,Zr  3,Zr  0)    104.5245         0.010000   
    465. D(O   7,Zr  4,Zr  3,Zr  0)     74.8399         0.010000   
    466. D(Zr  2,Zr  5,Zr  0,O   6)    122.3545         0.010000   
    467. D(Zr  0,Zr  5,Zr  2,Zr  1)   -104.4707         0.010000   
    468. D(O   6,Zr  5,Zr  0,Zr  3)    -17.7392         0.010000   
    469. D(O   6,Zr  5,Zr  2,Zr  1)    -74.9475         0.010000   
    470. D(Zr  2,Zr  5,Zr  0,Zr  3)    104.6153         0.010000   
    471. D(Zr  0,Zr  5,Zr  2,O   7)    -74.7233         0.010000   
    472. D(Zr  0,O   6,Zr  3,O   9)     24.4103         0.010000   
    473. D(Zr  0,O   6,Zr  5,O   8)    -88.5436         0.010000   
    474. D(Zr  5,O   6,Zr  3,Zr  0)   -140.0484         0.010000   
    475. D(Zr  0,O   6,Zr  5,Zr  2)    -52.7220         0.010000   
    476. D(Zr  0,O   6,Zr  3,Zr  4)     52.9286         0.010000   
    477. D(Zr  3,O   6,Zr  5,Zr  0)    139.9000         0.010000   
    478. D(Zr  5,O   6,Zr  0,Zr  3)    151.3108         0.010000   
    479. D(Zr  3,O   6,Zr  0,O   9)    -23.9806         0.010000   
    480. D(Zr  3,O   6,Zr  0,Zr  5)   -151.3108         0.010000   
    481. D(Zr  1,O   7,Zr  2,Zr  5)    -53.1004         0.010000   
    482. D(Zr  2,O   7,Zr  1,O   8)     23.8351         0.010000   
    483. D(Zr  4,O   7,Zr  1,Zr  2)   -151.8987         0.010000   
    484. D(Zr  2,O   7,Zr  1,Zr  4)    151.8987         0.010000   
    485. D(Zr  2,O   7,Zr  4,Zr  1)   -140.6778         0.010000   
    486. D(Zr  1,O   7,Zr  4,Zr  3)     53.0398         0.010000   
    487. D(Zr  1,O   7,Zr  4,O   9)     88.8414         0.010000   
    488. D(Zr  4,O   7,Zr  2,Zr  1)    140.7631         0.010000   
    489. D(Zr  1,O   7,Zr  2,O   8)    -24.2806         0.010000   
    490. D(Zr  5,O   8,Zr  2,Zr  1)   -150.2923         0.010000   
    491. D(Zr  1,O   8,Zr  5,Zr  2)   -138.9803         0.010000   
    492. D(Zr  1,O   8,Zr  2,O   7)     23.9152         0.010000   
    493. D(Zr  1,O   8,Zr  2,Zr  5)    150.2923         0.010000   
    494. D(Zr  5,O   8,Zr  1,Zr  2)    138.8112         0.010000   
    495. D(Zr  1,O   8,Zr  5,Zr  0)    -86.4932         0.010000   
    496. D(Zr  2,O   8,Zr  1,Zr  4)    -52.2133         0.010000   
    497. D(Zr  2,O   8,Zr  1,O   7)    -24.4112         0.010000   
    498. D(Zr  2,O   8,Zr  5,Zr  0)     52.4871         0.010000   
    499. D(Zr  3,O   9,Zr  4,Zr  1)    -52.8914         0.010000   
    500. D(Zr  0,O   9,Zr  4,Zr  3)    139.9917         0.010000   
    501. D(Zr  4,O   9,Zr  3,Zr  0)    151.1840         0.010000   
    502. D(Zr  0,O   9,Zr  4,Zr  1)     87.1002         0.010000   
    503. D(Zr  0,O   9,Zr  3,Zr  4)   -151.1840         0.010000   
    504. D(Zr  4,O   9,Zr  0,Zr  3)   -139.8251         0.010000   
    505. D(Zr  3,O   9,Zr  0,O   6)     24.6421         0.010000   
    506. D(Zr  3,O   9,Zr  0,Zr  5)     52.7464         0.010000   
    507. D(Zr  0,O   9,Zr  3,O   6)    -24.1347         0.010000   
    508. D(Zr  1,O  10,Zr  4,O   7)    -24.2630         0.010000   
    509. D(Zr  1,O  10,Zr  4,Zr  3)   -151.3434         0.010000   
    510. D(Zr  4,O  10,Zr  3,Zr  0)    -52.8218         0.010000   
    511. D(Zr  1,O  10,Zr  3,Zr  4)    140.0577         0.010000   
    512. D(Zr  1,O  10,Zr  3,Zr  0)     87.2358         0.010000   
    513. D(Zr  4,O  10,Zr  1,Zr  2)     52.9200         0.010000   
    514. D(Zr  3,O  10,Zr  1,Zr  4)   -140.2076         0.010000   
    515. D(Zr  3,O  10,Zr  4,Zr  1)    151.3434         0.010000   
    516. D(Zr  3,O  10,Zr  1,Zr  2)    -87.2875         0.010000   
    517. D(Zr  2,O  11,Zr  5,Zr  0)   -151.5535         0.010000   
    518. D(Zr  0,O  11,Zr  5,Zr  2)    151.5535         0.010000   
    519. D(Zr  5,O  11,Zr  2,Zr  1)     52.9480         0.010000   
    520. D(Zr  0,O  11,Zr  2,Zr  5)   -140.3569         0.010000   
    521. D(Zr  0,O  11,Zr  2,Zr  1)    -87.4089         0.010000   
    522. D(Zr  5,O  11,Zr  0,Zr  3)    -53.0326         0.010000   
    523. D(Zr  0,O  11,Zr  5,O   6)     24.1015         0.010000   
    524. D(Zr  2,O  11,Zr  0,Zr  5)    140.4868         0.010000   
    525. D(Zr  2,O  11,Zr  0,Zr  3)     87.4542         0.010000   
    526. D(C  36,O  12,Zr  0,Zr  5)     -4.5054         0.010000   
    527. D(C  36,O  12,Zr  0,Zr  3)     45.3210         0.010000   
    528. D(C  37,O  13,Zr  0,Zr  5)    -57.8674         0.010000   
    529. D(C  37,O  13,Zr  0,Zr  3)      3.6439         0.010000   
    530. D(C  38,O  14,Zr  0,Zr  5)      5.8674         0.010000   
    531. D(C  38,O  14,Zr  0,Zr  3)    -70.3744         0.010000   
    532. D(C  39,O  15,Zr  0,Zr  5)    -16.5799         0.010000   
    533. D(C  39,O  15,Zr  0,Zr  3)    -71.5166         0.010000   
    534. D(H  61,O  16,Zr  1,Zr  2)    -40.4032         0.010000   
    535. D(C  40,O  16,Zr  1,Zr  4)     15.6010         0.010000   
    536. D(C  40,O  16,Zr  1,Zr  2)     71.4039         0.010000   
    537. D(C  41,O  17,Zr  1,Zr  4)     -5.3308         0.010000   
    538. D(C  41,O  17,Zr  1,Zr  2)     70.7039         0.010000   
    539. D(H  61,O  18,Zr  1,Zr  2)     72.7273         0.010000   
    540. D(C  42,O  18,Zr  1,Zr  4)     56.8835         0.010000   
    541. D(C  42,O  18,Zr  1,Zr  2)     -4.8458         0.010000   
    542. D(C  43,O  19,Zr  1,Zr  4)      3.7892         0.010000   
    543. D(C  43,O  19,Zr  1,Zr  2)    -45.8682         0.010000   
    544. D(H  61,O  20,Zr  2,Zr  1)     24.6214         0.010000   
    545. D(C  44,O  20,Zr  2,Zr  5)      0.2390         0.010000   
    546. D(C  44,O  20,Zr  2,Zr  1)    -61.2163         0.010000   
    547. D(C  38,O  21,Zr  2,Zr  5)    -71.8547         0.010000   
    548. D(C  38,O  21,Zr  2,Zr  1)    -17.9017         0.010000   
    549. D(H  61,O  22,Zr  2,Zr  1)    -61.8130         0.010000   
    550. D(C  42,O  22,Zr  2,Zr  5)     46.0187         0.010000   
    551. D(C  42,O  22,Zr  2,Zr  1)     -3.0278         0.010000   
    552. D(C  45,O  23,Zr  2,Zr  5)    -71.9083         0.010000   
    553. D(C  45,O  23,Zr  2,Zr  1)      4.3403         0.010000   
    554. D(C  46,O  24,Zr  3,Zr  4)     72.1073         0.010000   
    555. D(C  46,O  24,Zr  3,Zr  0)     -4.4961         0.010000   
    556. D(C  37,O  25,Zr  3,Zr  4)    -44.3785         0.010000   
    557. D(C  37,O  25,Zr  3,Zr  0)      4.8678         0.010000   
    558. D(C  41,O  26,Zr  3,Zr  4)     71.8260         0.010000   
    559. D(C  41,O  26,Zr  3,Zr  0)     18.3866         0.010000   
    560. D(C  47,O  27,Zr  3,Zr  4)     -2.4162         0.010000   
    561. D(C  47,O  27,Zr  3,Zr  0)     59.3521         0.010000   
    562. D(C  47,O  28,Zr  4,Zr  3)     -3.7170         0.010000   
    563. D(C  47,O  28,Zr  4,Zr  1)     45.6838         0.010000   
    564. D(C  39,O  29,Zr  4,Zr  3)      5.2878         0.010000   
    565. D(C  39,O  29,Zr  4,Zr  1)    -71.1431         0.010000   
    566. D(C  43,O  30,Zr  4,Zr  3)    -58.9558         0.010000   
    567. D(C  43,O  30,Zr  4,Zr  1)      2.6693         0.010000   
    568. D(C  45,O  31,Zr  4,Zr  3)    -18.4813         0.010000   
    569. D(C  45,O  31,Zr  4,Zr  1)    -72.3786         0.010000   
    570. D(C  46,O  32,Zr  5,Zr  2)     16.5984         0.010000   
    571. D(C  46,O  32,Zr  5,Zr  0)     71.5315         0.010000   
    572. D(C  36,O  33,Zr  5,Zr  2)     58.0224         0.010000   
    573. D(C  36,O  33,Zr  5,Zr  0)     -3.2562         0.010000   
    574. D(C  40,O  34,Zr  5,Zr  2)     -8.5470         0.010000   
    575. D(C  40,O  34,Zr  5,Zr  0)     67.6715         0.010000   
    576. D(C  44,O  35,Zr  5,Zr  2)      4.3840         0.010000   
    577. D(C  44,O  35,Zr  5,Zr  0)    -45.8013         0.010000   
    578. D(O  12,C  36,O  33,Zr  5)      1.4470         0.047164   
    579. D(H  58,C  36,O  12,Zr  0)   -175.8639         0.047251   
    580. D(O  33,C  36,O  12,Zr  0)      4.2941         0.047251   
    581. D(H  58,C  36,O  33,Zr  5)   -178.3950         0.047164   
    582. D(H  51,C  37,O  25,Zr  3)    175.6094         0.047209   
    583. D(O  13,C  37,O  25,Zr  3)     -4.5515         0.047209   
    584. D(H  51,C  37,O  13,Zr  0)    178.0945         0.047124   
    585. D(O  25,C  37,O  13,Zr  0)     -1.7447         0.047124   
    586. D(H  50,C  38,O  21,Zr  2)   -160.8770         0.047635   
    587. D(O  14,C  38,O  21,Zr  2)     19.0738         0.047635   
    588. D(H  50,C  38,O  14,Zr  0)   -154.8265         0.046821   
    589. D(O  21,C  38,O  14,Zr  0)     25.2226         0.046821   
    590. D(H  54,C  39,O  29,Zr  4)   -154.2150         0.046788   
    591. D(O  15,C  39,O  29,Zr  4)     25.8447         0.046788   
    592. D(H  54,C  39,O  15,Zr  0)   -161.3089         0.047613   
    593. D(O  29,C  39,O  15,Zr  0)     18.6315         0.047613   
    594. D(H  56,C  40,O  34,Zr  5)    158.0062         0.051852   
    595. D(O  16,C  40,O  34,Zr  5)    -21.5316         0.051852   
    596. D(H  56,C  40,O  16,Zr  1)    159.9131         0.057363   
    597. D(O  34,C  40,O  16,H  61)     93.0041         0.057363   
    598. D(O  34,C  40,O  16,Zr  1)    -20.5492         0.057363   
    599. D(H  48,C  41,O  26,Zr  3)    161.4532         0.047621   
    600. D(O  17,C  41,O  26,Zr  3)    -18.4851         0.047621   
    601. D(H  48,C  41,O  17,Zr  1)    153.8786         0.046771   
    602. D(O  26,C  41,O  17,Zr  1)    -26.1831         0.046771   
    603. D(H  49,C  42,O  22,Zr  2)   -177.9880         0.056833   
    604. D(O  18,C  42,O  22,H  61)     75.2524         0.056833   
    605. D(O  18,C  42,O  22,Zr  2)      1.0304         0.056833   
    606. D(H  49,C  42,O  18,Zr  1)   -176.1412         0.056659   
    607. D(O  22,C  42,O  18,H  61)    -83.0081         0.056659   
    608. D(O  22,C  42,O  18,Zr  1)      4.8404         0.056659   
    609. D(H  52,C  43,O  30,Zr  4)    178.7197         0.047135   
    610. D(O  19,C  43,O  30,Zr  4)     -1.1192         0.047135   
    611. D(H  52,C  43,O  19,Zr  1)    176.5054         0.047210   
    612. D(O  30,C  43,O  19,Zr  1)     -3.6558         0.047210   
    613. D(H  59,C  44,O  35,Zr  5)    174.5102         0.047222   
    614. D(O  20,C  44,O  35,Zr  5)     -6.2239         0.047222   
    615. D(H  59,C  44,O  20,Zr  2)   -177.9002         0.052085   
    616. D(O  35,C  44,O  20,H  61)    -86.7804         0.052085   
    617. D(O  35,C  44,O  20,Zr  2)      2.8340         0.052085   
    618. D(H  55,C  45,O  31,Zr  4)   -160.5998         0.047575   
    619. D(O  23,C  45,O  31,Zr  4)     19.3338         0.047575   
    620. D(H  55,C  45,O  23,Zr  2)   -153.7647         0.046754   
    621. D(O  31,C  45,O  23,Zr  2)     26.3017         0.046754   
    622. D(H  57,C  46,O  32,Zr  5)    161.3511         0.047635   
    623. D(O  24,C  46,O  32,Zr  5)    -18.5458         0.047635   
    624. D(H  57,C  46,O  24,Zr  3)    153.5872         0.046804   
    625. D(O  32,C  46,O  24,Zr  3)    -26.5160         0.046804   
    626. D(H  53,C  47,O  28,Zr  4)   -176.4502         0.047210   
    627. D(O  27,C  47,O  28,Zr  4)      3.7247         0.047210   
    628. D(H  53,C  47,O  27,Zr  3)   -179.0173         0.047140   
    629. D(O  28,C  47,O  27,Zr  3)      0.8078         0.047140   
    630. D(H  61,H  49,C  42,O  22)     98.5610         0.121657   
    631. D(H  61,H  49,C  42,O  18)    -80.5700         0.121657   
    632. D(H  62,H  56,C  40,O  34)    -83.3266         0.125132   
    633. D(H  62,H  56,C  40,O  16)     96.2778         0.125132   
    634. D(H  62,H  59,C  44,O  35)     66.6421         0.109637   
    635. D(H  62,H  59,C  44,O  20)   -112.7080         0.109637   
    636. D(C  42,H  61,Al 60,H  62)    152.4903         0.010576   
    637. D(O  16,H  61,Al 60,H  62)    -37.6139         0.010576   
    638. D(O  16,H  61,H  49,C  42)     48.2467         0.010000   
    639. D(Al 60,H  61,H  49,C  42)   -154.6060         0.010000   
    640. D(Al 60,H  61,C  42,O  22)    -79.1998         0.010000   
    641. D(Al 60,H  61,C  42,O  18)    152.8756         0.010000   
    642. D(O  16,H  61,C  40,O  34)   -123.1140         0.010000   
    643. D(Al 60,H  61,C  40,O  16)   -149.2873         0.010000   
    644. D(O  16,H  61,O  22,Zr  2)     61.0306         0.010000   
    645. D(Al 60,H  61,O  22,C  42)    131.5007         0.010000   
    646. D(Al 60,H  61,O  22,Zr  2)    -95.5396         0.010000   
    647. D(O  16,H  61,O  20,Zr  2)    -51.5858         0.010000   
    648. D(Al 60,H  61,O  20,C  44)    -44.9813         0.010000   
    649. D(Al 60,H  61,O  20,Zr  2)   -178.0127         0.010000   
    650. D(O  16,H  61,O  18,Zr  1)     25.9273         0.010000   
    651. D(Al 60,H  61,C  40,O  34)     87.5988         0.010000   
    652. D(Al 60,H  61,O  18,C  42)    -87.9680         0.010000   
    653. D(Al 60,H  61,O  18,Zr  1)    139.1499         0.010000   
    654. D(C  42,H  61,O  16,Zr  1)    -15.5806         0.010000   
    655. D(O  16,H  61,C  42,O  18)    -18.6228         0.010000   
    656. D(Al 60,H  61,O  16,C  40)     36.4793         0.010000   
    657. D(Al 60,H  61,O  16,Zr  1)    169.7082         0.010000   
    658. D(O  16,H  61,O   8,Zr  1)    -45.8665         0.010000   
    659. D(O  16,H  61,Al 60,H  63)   -174.9925         0.010576   
    660. D(Al 60,H  61,O   8,Zr  2)    104.3912         0.010000   
    661. D(Al 60,H  61,O   8,Zr  1)   -147.8325         0.010000   
    662. D(H  59,H  62,Al 60,H  61)    -75.6161         0.010000   
    663. D(H  56,H  62,Al 60,H  63)    174.5760         0.010000   
    664. D(H  56,H  62,Al 60,H  61)     37.7252         0.010000   
    665. D(H  56,H  62,H  59,C  44)    -14.1405         0.010000   
    666. D(Al 60,H  62,H  59,C  44)     82.2629         0.010000   
    667. D(H  59,H  62,H  56,C  40)     20.7233         0.010000   
    668. D(Al 60,H  62,H  56,C  40)    -66.7465         0.010000   
    -----------------------------------------------------------------

Number of atoms                         .... 64
Number of degrees of freedom            .... 668


         *************************************************************
         *                GEOMETRY OPTIMIZATION CYCLE   1            *
         *************************************************************
---------------------------------
CARTESIAN COORDINATES (ANGSTROEM)
---------------------------------
  Zr    -0.311704    2.132040    1.441273
  Zr     0.337578   -2.159560   -1.453478
  Zr     1.684218   -1.265811    1.564798
  Zr    -1.655610    1.237522   -1.575439
  Zr     1.750229    0.945595   -1.701899
  Zr    -1.722457   -0.976867    1.690662
  O     -1.658479    0.807441    0.525748
  O      1.679163   -0.833399   -0.533499
  O     -0.089881   -1.862388    0.615071
  O      0.118667    1.822374   -0.620794
  O     -0.047321   -0.108176   -1.940275
  O      0.074113    0.079237    1.926079
  O     -1.193932    2.107700    3.200678
  O     -1.725182    3.449606    1.020540
  O      1.374483    2.027562    2.640202
  O      0.909466    3.629213    0.790592
  O     -0.890200   -3.654625   -0.814347
  O     -1.350451   -2.048634   -2.655473
  O      1.763909   -3.466785   -1.039766
  O      1.215627   -2.132003   -3.215432
  O      1.055058   -2.523250    2.954015
  O      2.132556   -0.122830    3.193200
  O      2.750876   -2.806888    0.963137
  O      3.438714   -0.277014    1.076273
  O     -3.407907    0.246346   -1.094337
  O     -2.716968    2.784064   -0.977966
  O     -2.102121    0.103542   -3.210432
  O     -1.018297    2.508687   -2.949755
  O      1.305707    2.370923   -2.984995
  O      2.451552    2.567721   -0.623981
  O      2.242569   -0.046086   -3.339936
  O      3.647532    0.445723   -1.146286
  O     -3.619698   -0.489394    1.123313
  O     -2.231901    0.027326    3.317530
  O     -2.417319   -2.609848    0.628347
  O     -1.267793   -2.372637    3.000872
  C     -1.938868    1.208981    3.768169
  C     -2.583806    3.561236    0.053159
  C      2.051624    1.163795    3.335149
  C      2.006132    3.548086    0.102844
  C     -1.988526   -3.573903   -0.129208
  C     -2.019631   -1.182661   -3.355613
  C      2.638950   -3.564104   -0.085321
  C      1.950141   -1.228517   -3.789145
  C     -0.122283   -2.825235    3.410540
  C      4.093062    0.130422    0.030402
  C     -4.063818   -0.166046   -0.051554
  C      0.161358    2.840951   -3.378041
  H     -2.593577   -1.595063   -4.181082
  H      3.351858   -4.384420   -0.166369
  H      2.634849    1.578900    4.152729
  H     -3.273458    4.402814    0.115422
  H      2.367515   -1.491737   -4.760858
  H      0.194599    3.604273   -4.155184
  H      2.644634    4.426644    0.140984
  H      5.168243    0.221115    0.160113
  H     -2.641171   -4.440455   -0.192604
  H     -5.138998   -0.254323   -0.182598
  H     -2.365428    1.475831    4.734865
  H     -0.153088   -3.550303    4.223809
  Al    -0.056354   -5.932182    1.881163
  H      0.525681   -4.819087    0.897432
  H     -1.538001   -5.623496    2.390346
  H      0.970588   -6.465054    2.981140

----------------------------
CARTESIAN COORDINATES (A.U.)
----------------------------
  NO LB      ZA    FRAG     MASS         X           Y           Z
   0 Zr   12.0000*   0    91.220   -0.589034    4.028971    2.723612
   1 Zr   12.0000*   0    91.220    0.637930   -4.080977   -2.746676
   2 Zr   12.0000*   0    91.220    3.182710   -2.392036    2.957040
   3 Zr   12.0000*   0    91.220   -3.128649    2.338577   -2.977148
   4 Zr   12.0000*   0    91.220    3.307453    1.786915   -3.216122
   5 Zr   12.0000*   0    91.220   -3.254971   -1.846012    3.194889
   6 O     8.0000    0    15.999   -3.134071    1.525843    0.993519
   7 O     8.0000    0    15.999    3.173158   -1.574895   -1.008166
   8 O     8.0000    0    15.999   -0.169850   -3.519403    1.162315
   9 O     8.0000    0    15.999    0.224248    3.443789   -1.173131
  10 O     8.0000    0    15.999   -0.089424   -0.204423   -3.666589
  11 O     8.0000    0    15.999    0.140053    0.149737    3.639763
  12 O     8.0000    0    15.999   -2.256204    3.982975    6.048406
  13 O     8.0000    0    15.999   -3.260121    6.518811    1.928541
  14 O     8.0000    0    15.999    2.597396    3.831536    4.989258
  15 O     8.0000    0    15.999    1.718642    6.858218    1.494002
  16 O     8.0000    0    15.999   -1.682235   -6.906240   -1.538893
  17 O     8.0000    0    15.999   -2.551983   -3.871356   -5.018117
  18 O     8.0000    0    15.999    3.333305   -6.551274   -1.964874
  19 O     8.0000    0    15.999    2.297203   -4.028902   -6.076287
  20 O     8.0000    0    15.999    1.993770   -4.768252    5.582280
  21 O     8.0000    0    15.999    4.029947   -0.232115    6.034273
  22 O     8.0000    0    15.999    5.198403   -5.304250    1.820065
  23 O     8.0000    0    15.999    6.498229   -0.523482    2.033862
  24 O     8.0000    0    15.999   -6.440011    0.465526   -2.067998
  25 O     8.0000    0    15.999   -5.134326    5.261119   -1.848089
  26 O     8.0000    0    15.999   -3.972433    0.195667   -6.066837
  27 O     8.0000    0    15.999   -1.924302    4.740731   -5.574229
  28 O     8.0000    0    15.999    2.467428    4.480395   -5.640822
  29 O     8.0000    0    15.999    4.632762    4.852290   -1.179153
  30 O     8.0000    0    15.999    4.237841   -0.087089   -6.311564
  31 O     8.0000    0    15.999    6.892837    0.842294   -2.166167
  32 O     8.0000    0    15.999   -6.840238   -0.924820    2.122755
  33 O     8.0000    0    15.999   -4.217681    0.051638    6.269222
  34 O     8.0000    0    15.999   -4.568071   -4.931898    1.187403
  35 O     8.0000    0    15.999   -2.395781   -4.483635    5.670827
  36 C     6.0000    0    12.011   -3.663929    2.284643    7.120807
  37 C     6.0000    0    12.011   -4.882685    6.729761    0.100457
  38 C     6.0000    0    12.011    3.877007    2.199254    6.302519
  39 C     6.0000    0    12.011    3.791040    6.704911    0.194348
  40 C     6.0000    0    12.011   -3.757769   -6.753698   -0.244167
  41 C     6.0000    0    12.011   -3.816549   -2.234905   -6.341189
  42 C     6.0000    0    12.011    4.986893   -6.735180   -0.161234
  43 C     6.0000    0    12.011    3.685233   -2.321561   -7.160447
  44 C     6.0000    0    12.011   -0.231081   -5.338920    6.444987
  45 C     6.0000    0    12.011    7.734766    0.246462    0.057451
  46 C     6.0000    0    12.011   -7.679503   -0.313781   -0.097423
  47 C     6.0000    0    12.011    0.304923    5.368619   -6.383573
  48 H     1.0000    0     1.008   -4.901151   -3.014233   -7.901100
  49 H     1.0000    0     1.008    6.334093   -8.285353   -0.314391
  50 H     1.0000    0     1.008    4.979143    2.983689    7.847521
  51 H     1.0000    0     1.008   -6.185939    8.320113    0.218115
  52 H     1.0000    0     1.008    4.473955   -2.818973   -8.996719
  53 H     1.0000    0     1.008    0.367739    6.811089   -7.852160
  54 H     1.0000    0     1.008    4.997634    8.365145    0.266422
  55 H     1.0000    0     1.008    9.766563    0.417848    0.302570
  56 H     1.0000    0     1.008   -4.991090   -8.391243   -0.363970
  57 H     1.0000    0     1.008   -9.711299   -0.480600   -0.345061
  58 H     1.0000    0     1.008   -4.470011    2.788917    8.947599
  59 H     1.0000    0     1.008   -0.289295   -6.709101    7.981843
  60 Al   13.0000    0    26.982   -0.106493  -11.210200    3.554884
  61 H     1.0000    0     1.008    0.993394   -9.106754    1.695902
  62 H     1.0000    0     1.008   -2.906401  -10.626868    4.517099
  63 H     1.0000    0     1.008    1.834146  -12.217182    5.633537
* core charge reduced due to ECP

--------------------------------
INTERNAL COORDINATES (ANGSTROEM)
--------------------------------
 Zr     0   0   0     0.000000000000     0.00000000     0.00000000
 Zr     1   0   0     5.217181696156     0.00000000     0.00000000
 Zr     2   1   0     3.423772555538    49.08660248     0.00000000
 Zr     1   2   3     3.421520170854    49.05158062   179.97719658
 Zr     2   1   3     3.420421122506    49.07477951   260.56286253
 Zr     3   2   1     3.421221889533    70.29550329    52.34537063
 O      1   2   3     2.099179176234    47.06205075   230.02788960
 O      2   1   3     2.098789312610    46.88771803   310.07959311
 O      3   2   1     2.098883186657    36.33606987    70.71390798
 O      4   1   2     2.097964800625    36.26798957   289.87013125
 O      5   2   1     2.097246067042    36.69058518   290.15816277
 O      6   3   2     2.097245693083    36.26099065   237.95212914
 O      1   2   3     1.968355870180   122.78971264   293.54613348
 O      1   2   3     1.977604109380   121.26195971   190.75526221
 O      1   2   3     2.071610375307   100.27264325    19.62712147
 O      1   2   3     2.038668279463   110.63797369    96.89466764
 O      2   1   3     2.037436654725   110.76683125    83.48430021
 O      2   1   3     2.075219901548   100.14707600   160.50063308
 O      2   1   3     1.978487804764   121.14446504   348.65407445
 O      2   1   3     1.968809666146   122.72057668   246.26923888
 O      3   2   1     1.976593255691   109.16755282   115.62909759
 O      3   2   1     2.039388195873   159.50079064   354.12320127
 O      3   2   1     1.968419766573    74.88888595   193.19572487
 O      3   2   1     2.072349794732   104.46162595   269.43428757
 O      4   1   2     2.069887715897   104.64186298    90.47687174
 O      4   1   2     1.968565423602    74.85750753   167.05359530
 O      4   1   2     2.039235725587   159.76679505     5.29656441
 O      4   1   2     1.977567277664   108.54797908   244.21125117
 O      5   2   1     1.968627992768   127.68836812   256.61122396
 O      5   2   1     2.070037578750   144.43926626    35.33663928
 O      5   2   1     1.977117648667    73.00257001   189.91018312
 O      5   2   1     2.039200295179    98.16012687   110.28027988
 O      6   3   2     2.039372704641   159.43978443   314.82357974
 O      6   3   2     1.978543439516   109.23871678   192.68119490
 O      6   3   2     2.068326223680   104.41541160    39.15218912
 O      6   3   2     1.967623967584    74.60314931   116.37431548
 C     13   1   2     1.297948611948   131.04184478   344.55187494
 C     26   4   1     1.298055979506   131.00691756     4.86784115
 C     22   3   2     1.296959793620   129.02504941   342.09828870
 C     16   1   2     1.297017354083   129.03394984   337.76355122
 C     17   2   1     1.297015890599   129.07468070    21.97061925
 C     27   4   1     1.296996651033   128.84925866    18.38658203
 C     23   3   2     1.298139940529   131.05766859   356.97216312
 C     20   2   1     1.298053857805   131.12054356    14.93398878
 C     36   6   3     1.298023737148   131.40864776     4.38402553
 C     32   5   2     1.297114389332   128.78005355   287.62143929
 C     33   6   3     1.296962014028   129.06248660    16.59835485
 C     29   5   2     1.298054604456   131.19232996    45.68376653
 H     42  27   4     1.086687748334   115.32697006   161.45323162
 H     43  23   3     1.089827464058   116.27758559   182.01202329
 H     39  22   3     1.086692736679   115.32794742   199.12299013
 H     38  26   4     1.089839428505   116.28259338   175.60939521
 H     44  20   2     1.089822024669   116.27498930   176.50535670
 H     48  29   5     1.089823979363   116.27316019   183.54977211
 H     40  16   1     1.086740236435   115.31567507   198.69112560
 H     46  32   5     1.086767831503   115.32826973   199.40017646
 H     41  17   2     1.086681555321   115.34923826   159.91309756
 H     47  33   6     1.086727505164   115.32638550   161.35106246
 H     37  13   1     1.089800507728   116.29099702   184.13607740
 H     45  36   6     1.089991073993   116.26267908   174.51021897
 Al    60  45  36     3.342258709624    87.14970080    94.79182557
 H     61  60  45     1.595453850509    86.87792951    19.99625858
 H     61  60  45     1.596819594679    67.16216628   262.74448230
 H     61  60  45     1.596405275138    76.91150349   136.58986305

---------------------------
INTERNAL COORDINATES (A.U.)
---------------------------
 Zr     0   0   0     0.000000000000     0.00000000     0.00000000
 Zr     1   0   0     9.859044596641     0.00000000     0.00000000
 Zr     2   1   0     6.469992474802    49.08660248     0.00000000
 Zr     1   2   3     6.465736084602    49.05158062   179.97719658
 Zr     2   1   3     6.463659184216    49.07477951   260.56286253
 Zr     3   2   1     6.465172414593    70.29550329    52.34537063
 O      1   2   3     3.966873749112    47.06205075   230.02788960
 O      2   1   3     3.966137013633    46.88771803   310.07959311
 O      3   2   1     3.966314409874    36.33606987    70.71390798
 O      4   1   2     3.964578911789    36.26798957   289.87013125
 O      5   2   1     3.963220702153    36.69058518   290.15816277
 O      6   3   2     3.963219995472    36.26099065   237.95212914
 O      1   2   3     3.719653528736   122.78971264   293.54613348
 O      1   2   3     3.737130168045   121.26195971   190.75526221
 O      1   2   3     3.914776265521   100.27264325    19.62712147
 O      1   2   3     3.852524726098   110.63797369    96.89466764
 O      2   1   3     3.850197292643   110.76683125    83.48430021
 O      2   1   3     3.921597281588   100.14707600   160.50063308
 O      2   1   3     3.738800110306   121.14446504   348.65407445
 O      2   1   3     3.720511078834   122.72057668   246.26923888
 O      3   2   1     3.735219931412   109.16755282   115.62909759
 O      3   2   1     3.853885170952   159.50079064   354.12320127
 O      3   2   1     3.719774275419    74.88888595   193.19572487
 O      3   2   1     3.916173565732   104.46162595   269.43428757
 O      4   1   2     3.911520911013   104.64186298    90.47687174
 O      4   1   2     3.720049527315    74.85750753   167.05359530
 O      4   1   2     3.853597043867   159.76679505     5.29656441
 O      4   1   2     3.737060566190   108.54797908   244.21125117
 O      5   2   1     3.720167765903   127.68836812   256.61122396
 O      5   2   1     3.911804110763   144.43926626    35.33663928
 O      5   2   1     3.736210890522    73.00257001   189.91018312
 O      5   2   1     3.853530090099    98.16012687   110.28027988
 O      6   3   2     3.853855896765   159.43978443   314.82357974
 O      6   3   2     3.738905244751   109.23871678   192.68119490
 O      6   3   2     3.908570118362   104.41541160    39.15218912
 O      6   3   2     3.718270433273    74.60314931   116.37431548
 C     13   1   2     2.452767412486   131.04184478   344.55187494
 C     26   4   1     2.452970307765   131.00691756     4.86784115
 C     22   3   2     2.450898816649   129.02504941   342.09828870
 C     16   1   2     2.451007590160   129.03394984   337.76355122
 C     17   2   1     2.451004824576   129.07468070    21.97061925
 C     27   4   1     2.450968467065   128.84925866    18.38658203
 C     23   3   2     2.453128971105   131.05766859   356.97216312
 C     20   2   1     2.452966298331   131.12054356    14.93398878
 C     36   6   3     2.452909378538   131.40864776     4.38402553
 C     32   5   2     2.451190960206   128.78005355   287.62143929
 C     33   6   3     2.450903012612   129.06248660    16.59835485
 C     29   5   2     2.452967709298   131.19232996    45.68376653
 H     42  27   4     2.053542237439   115.32697006   161.45323162
 H     43  23   3     2.059475440296   116.27758559   182.01202329
 H     39  22   3     2.053551664045   115.32794742   199.12299013
 H     38  26   4     2.059498049824   116.28259338   175.60939521
 H     44  20   2     2.059465161340   116.27498930   176.50535670
 H     48  29   5     2.059468855177   116.27316019   183.54977211
 H     40  16   1     2.053641425574   115.31567507   198.69112560
 H     46  32   5     2.053693572697   115.32826973   199.40017646
 H     41  17   2     2.053530534340   115.34923826   159.91309756
 H     47  33   6     2.053617366959   115.32638550   161.35106246
 H     37  13   1     2.059424500214   116.29099702   184.13607740
 H     45  36   6     2.059784618265   116.26267908   174.51021897
 Al    60  45  36     6.315953629903    87.14970080    94.79182557
 H     61  60  45     3.014970836773    86.87792951    19.99625858
 H     61  60  45     3.017551719222    67.16216628   262.74448230
 H     61  60  45     3.016768768759    76.91150349   136.58986305

---------------------
BASIS SET INFORMATION
---------------------
There are 5 groups of distinct atoms

 Group   1 Type Zr  : 7s6p5d contracted to 5s3p2d pattern {31111/411/41}
 Group   2 Type O   : 7s4p1d contracted to 3s2p1d pattern {511/31/1}
 Group   3 Type C   : 7s4p1d contracted to 3s2p1d pattern {511/31/1}
[...]
176:   1637.75   0.015494   78.30  0.002952  (-0.049879 -0.018438 -0.011153)
177:   1851.29   0.013963   70.56  0.002354  ( 0.018104  0.034171 -0.029295)
178:   1867.36   0.044044  222.58  0.007360  ( 0.071289 -0.047428  0.005371)
179:   1924.93   0.039024  197.21  0.006327  ( 0.016407  0.061967 -0.047089)
180:   2876.36   0.022943  115.95  0.002489  ( 0.000244 -0.034834  0.035717)
181:   2887.86   0.014535   73.45  0.001571  ( 0.005795  0.002199  0.039144)
182:   2888.53   0.011870   59.99  0.001282  (-0.000433 -0.010799  0.034141)
183:   2888.72   0.014838   74.99  0.001603  ( 0.011793 -0.038060  0.003908)
184:   2888.94   0.014778   74.68  0.001596  ( 0.000296  0.036062  0.017198)
185:   2889.82   0.067586  341.55  0.007298  (-0.075869 -0.035746 -0.016264)
186:   2890.71   0.003352   16.94  0.000362  ( 0.015789  0.002298  0.010356)
187:   2905.49   0.012618   63.77  0.001355  ( 0.014506 -0.029279  0.016957)
188:   2905.85   0.007298   36.88  0.000784  ( 0.017189 -0.022091 -0.000487)
189:   2906.37   0.036979  186.88  0.003971  ( 0.035446 -0.047439 -0.021532)
190:   2907.04   0.039553  199.88  0.004246  (-0.024818 -0.000144  0.060249)
191:   2908.03   0.012145   61.37  0.001303  ( 0.006407 -0.028950  0.020594)

* The epsilon (eps) is given for a Dirac delta lineshape.
** The dipole moment derivative (T) already includes vibrational overlap.

The first frequency considered to be a vibration is 8
The total number of vibrations considered is 184


--------------------------
THERMOCHEMISTRY AT 298.15K
--------------------------

Temperature         ...   298.15 K
Pressure            ...     1.00 atm
Total Mass          ...  1213.52 AMU
Quasi RRHO          ...     True
Cut-Off Frequency   ...     1.00 cm^-1

Throughout the following assumptions are being made:
  (1) The electronic state is orbitally nondegenerate
  (2) There are no thermally accessible electronically excited states
  (3) Hindered rotations indicated by low frequency modes are not
      treated as such but are treated as vibrations and this may
      cause some error
  (4) All equations used are the standard statistical mechanics
      equations for an ideal gas
  (5) All vibrations are strictly harmonic

freq.      20.40  E(vib)   ...       0.56 
freq.      42.73  E(vib)   ...       0.53 
freq.      47.84  E(vib)   ...       0.53 
freq.      56.82  E(vib)   ...       0.51 
freq.      57.14  E(vib)   ...       0.51 
freq.      61.73  E(vib)   ...       0.51 
freq.      65.16  E(vib)   ...       0.50 
freq.      67.43  E(vib)   ...       0.50 
freq.      74.29  E(vib)   ...       0.49 
freq.      81.93  E(vib)   ...       0.48 
freq.      83.70  E(vib)   ...       0.48 
freq.      96.05  E(vib)   ...       0.47 
freq.      98.29  E(vib)   ...       0.46 
freq.      99.39  E(vib)   ...       0.46 
freq.     100.62  E(vib)   ...       0.46 
freq.     105.79  E(vib)   ...       0.45 
freq.     106.58  E(vib)   ...       0.45 
freq.     106.97  E(vib)   ...       0.45 
freq.     110.86  E(vib)   ...       0.45 
freq.     116.18  E(vib)   ...       0.44 
freq.     120.04  E(vib)   ...       0.44 
freq.     125.91  E(vib)   ...       0.43 
freq.     135.81  E(vib)   ...       0.42 
freq.     137.71  E(vib)   ...       0.42 
freq.     150.50  E(vib)   ...       0.40 
freq.     151.59  E(vib)   ...       0.40 
freq.     151.99  E(vib)   ...       0.40 
freq.     153.07  E(vib)   ...       0.40 
freq.     157.28  E(vib)   ...       0.40 
freq.     158.14  E(vib)   ...       0.39 
freq.     159.71  E(vib)   ...       0.39 
freq.     160.66  E(vib)   ...       0.39 
freq.     164.69  E(vib)   ...       0.39 
freq.     167.81  E(vib)   ...       0.38 
freq.     171.04  E(vib)   ...       0.38 
freq.     174.02  E(vib)   ...       0.38 
freq.     175.16  E(vib)   ...       0.38 
freq.     187.13  E(vib)   ...       0.36 
freq.     187.92  E(vib)   ...       0.36 
freq.     189.02  E(vib)   ...       0.36 
freq.     192.43  E(vib)   ...       0.36 
freq.     192.86  E(vib)   ...       0.36 
freq.     195.48  E(vib)   ...       0.36 
freq.     205.46  E(vib)   ...       0.35 
freq.     209.98  E(vib)   ...       0.34 
freq.     211.73  E(vib)   ...       0.34 
freq.     212.32  E(vib)   ...       0.34 
freq.     224.58  E(vib)   ...       0.33 
freq.     225.20  E(vib)   ...       0.33 
freq.     232.42  E(vib)   ...       0.32 
freq.     234.28  E(vib)   ...       0.32 
freq.     245.68  E(vib)   ...       0.31 
freq.     260.34  E(vib)   ...       0.30 
freq.     261.51  E(vib)   ...       0.30 
freq.     262.09  E(vib)   ...       0.29 
freq.     263.75  E(vib)   ...       0.29 
freq.     264.51  E(vib)   ...       0.29 
freq.     265.15  E(vib)   ...       0.29 
freq.     270.33  E(vib)   ...       0.29 
freq.     271.67  E(vib)   ...       0.29 
freq.     273.14  E(vib)   ...       0.29 
freq.     273.43  E(vib)   ...       0.29 
freq.     275.77  E(vib)   ...       0.28 
freq.     276.15  E(vib)   ...       0.28 
freq.     284.72  E(vib)   ...       0.28 
freq.     285.92  E(vib)   ...       0.27 
freq.     288.78  E(vib)   ...       0.27 
freq.     289.03  E(vib)   ...       0.27 
freq.     292.74  E(vib)   ...       0.27 
freq.     297.97  E(vib)   ...       0.27 
freq.     304.41  E(vib)   ...       0.26 
freq.     304.77  E(vib)   ...       0.26 
freq.     308.59  E(vib)   ...       0.26 
freq.     310.18  E(vib)   ...       0.26 
freq.     311.14  E(vib)   ...       0.26 
freq.     313.77  E(vib)   ...       0.25 
freq.     314.41  E(vib)   ...       0.25 
freq.     315.83  E(vib)   ...       0.25 
freq.     322.08  E(vib)   ...       0.25 
freq.     322.45  E(vib)   ...       0.25 
freq.     324.21  E(vib)   ...       0.25 
freq.     339.15  E(vib)   ...       0.23 
freq.     340.65  E(vib)   ...       0.23 
freq.     350.72  E(vib)   ...       0.23 
freq.     351.66  E(vib)   ...       0.23 
freq.     366.77  E(vib)   ...       0.22 
freq.     369.51  E(vib)   ...       0.21 
freq.     386.96  E(vib)   ...       0.20 
freq.     393.08  E(vib)   ...       0.20 
freq.     402.13  E(vib)   ...       0.19 
freq.     403.10  E(vib)   ...       0.19 
freq.     404.10  E(vib)   ...       0.19 
freq.     418.04  E(vib)   ...       0.18 
freq.     418.31  E(vib)   ...       0.18 
freq.     422.82  E(vib)   ...       0.18 
freq.     424.66  E(vib)   ...       0.18 
freq.     466.99  E(vib)   ...       0.16 
freq.     479.38  E(vib)   ...       0.15 
freq.     481.30  E(vib)   ...       0.15 
freq.     532.78  E(vib)   ...       0.13 
freq.     542.38  E(vib)   ...       0.12 
freq.     619.62  E(vib)   ...       0.09 
freq.     663.40  E(vib)   ...       0.08 
freq.     670.46  E(vib)   ...       0.08 
freq.     675.11  E(vib)   ...       0.08 
freq.     681.41  E(vib)   ...       0.08 
freq.     682.91  E(vib)   ...       0.08 
freq.     735.59  E(vib)   ...       0.06 
freq.     736.54  E(vib)   ...       0.06 
freq.     736.72  E(vib)   ...       0.06 
freq.     736.89  E(vib)   ...       0.06 
freq.     737.22  E(vib)   ...       0.06 
freq.     738.31  E(vib)   ...       0.06 
freq.     739.54  E(vib)   ...       0.06 
freq.     739.84  E(vib)   ...       0.06 
freq.     740.11  E(vib)   ...       0.06 
freq.     740.51  E(vib)   ...       0.06 
freq.     741.49  E(vib)   ...       0.06 
freq.     741.70  E(vib)   ...       0.06 
freq.     746.47  E(vib)   ...       0.06 
freq.     761.24  E(vib)   ...       0.06 
freq.     998.27  E(vib)   ...       0.02 
freq.    1000.36  E(vib)   ...       0.02 
freq.    1000.55  E(vib)   ...       0.02 
freq.    1000.82  E(vib)   ...       0.02 
freq.    1001.79  E(vib)   ...       0.02 
freq.    1002.22  E(vib)   ...       0.02 
freq.    1003.30  E(vib)   ...       0.02 
freq.    1004.26  E(vib)   ...       0.02 
freq.    1004.46  E(vib)   ...       0.02 
freq.    1004.78  E(vib)   ...       0.02 
freq.    1005.08  E(vib)   ...       0.02 
freq.    1005.44  E(vib)   ...       0.02 
freq.    1348.32  E(vib)   ...       0.01 
freq.    1348.73  E(vib)   ...       0.01 
freq.    1348.95  E(vib)   ...       0.01 
freq.    1349.73  E(vib)   ...       0.01 
freq.    1349.98  E(vib)   ...       0.01 
freq.    1351.52  E(vib)   ...       0.01 
freq.    1352.75  E(vib)   ...       0.01 
freq.    1353.23  E(vib)   ...       0.01 
freq.    1353.47  E(vib)   ...       0.01 
freq.    1354.15  E(vib)   ...       0.01 
freq.    1354.41  E(vib)   ...       0.01 
freq.    1355.02  E(vib)   ...       0.01 
freq.    1358.95  E(vib)   ...       0.01 
freq.    1361.37  E(vib)   ...       0.01 
freq.    1361.55  E(vib)   ...       0.01 
freq.    1361.69  E(vib)   ...       0.01 
freq.    1364.52  E(vib)   ...       0.01 
freq.    1364.95  E(vib)   ...       0.01 
freq.    1365.96  E(vib)   ...       0.01 
freq.    1368.93  E(vib)   ...       0.01 
freq.    1369.44  E(vib)   ...       0.01 
freq.    1372.71  E(vib)   ...       0.01 
freq.    1373.89  E(vib)   ...       0.01 
freq.    1381.46  E(vib)   ...       0.01 
freq.    1544.65  E(vib)   ...       0.00 
freq.    1554.23  E(vib)   ...       0.00 
freq.    1562.88  E(vib)   ...       0.00 
freq.    1565.79  E(vib)   ...       0.00 
freq.    1570.67  E(vib)   ...       0.00 
freq.    1576.28  E(vib)   ...       0.00 
freq.    1578.05  E(vib)   ...       0.00 
freq.    1629.35  E(vib)   ...       0.00 
freq.    1630.80  E(vib)   ...       0.00 
freq.    1635.46  E(vib)   ...       0.00 
freq.    1637.17  E(vib)   ...       0.00 
freq.    1637.75  E(vib)   ...       0.00 
freq.    1851.29  E(vib)   ...       0.00 
freq.    1867.36  E(vib)   ...       0.00 
freq.    1924.93  E(vib)   ...       0.00 
freq.    2876.36  E(vib)   ...       0.00 
freq.    2887.86  E(vib)   ...       0.00 
freq.    2888.53  E(vib)   ...       0.00 
freq.    2888.72  E(vib)   ...       0.00 
freq.    2888.94  E(vib)   ...       0.00 
freq.    2889.82  E(vib)   ...       0.00 
freq.    2890.71  E(vib)   ...       0.00 
freq.    2905.49  E(vib)   ...       0.00 
freq.    2905.85  E(vib)   ...       0.00 
freq.    2906.37  E(vib)   ...       0.00 
freq.    2907.04  E(vib)   ...       0.00 
freq.    2908.03  E(vib)   ...       0.00 

------------
INNER ENERGY
------------

The inner energy is: U= E(el) + E(ZPE) + E(vib) + E(rot) + E(trans)
    E(el)   - is the total energy from the electronic structure calculation
              = E(kin-el) + E(nuc-el) + E(el-el) + E(nuc-nuc)
    E(ZPE)  - the the zero temperature vibrational energy from the frequency calculation
    E(vib)  - the the finite temperature correction to E(ZPE) due to population
              of excited vibrational states
    E(rot)  - is the rotational thermal energy
    E(trans)- is the translational thermal energy

Summary of contributions to the inner energy U:
Electronic energy                ...  -3244.51260021 Eh
Zero point energy                ...      0.32486050 Eh     203.85 kcal/mol
Thermal vibrational correction   ...      0.05590288 Eh      35.08 kcal/mol
Thermal rotational correction    ...      0.00141627 Eh       0.89 kcal/mol
Thermal translational correction ...      0.00141627 Eh       0.89 kcal/mol
-----------------------------------------------------------------------
Total thermal energy                  -3244.12900429 Eh


Summary of corrections to the electronic energy:
(perhaps to be used in another calculation)
Total thermal correction                  0.05873542 Eh      36.86 kcal/mol
Non-thermal (ZPE) correction              0.32486050 Eh     203.85 kcal/mol
-----------------------------------------------------------------------
Total correction                          0.38359592 Eh     240.71 kcal/mol


--------
ENTHALPY
--------

The enthalpy is H = U + kB*T
                kB is Boltzmann's constant
Total thermal energy              ...  -3244.12900429 Eh 
Thermal Enthalpy correction       ...      0.00094421 Eh       0.59 kcal/mol
-----------------------------------------------------------------------
Total Enthalpy                    ...  -3244.12806008 Eh


Note: Only C1 symmetry has been detected, increase convergence thresholds 
      if your molecule has a higher symmetry. Symmetry factor of 1.0 is   
      used for the rotational entropy correction. 
 

Note: Rotational entropy computed according to Herzberg 
Infrared and Raman Spectra, Chapter V,1, Van Nostrand Reinhold, 1945 
Point Group:  C1, Symmetry Number:   1  
Rotational constants in cm-1:     0.001868     0.001642     0.001575 

Vibrational entropy computed according to the QRRHO of S. Grimme
Chem.Eur.J. 2012 18 9955 using a reference frequency of 100.0 cm-1


-------
ENTROPY
-------

The entropy contributions are T*S = T*(S(el)+S(vib)+S(rot)+S(trans))
     S(el)   - electronic entropy
     S(vib)  - vibrational entropy
     S(rot)  - rotational entropy
     S(trans)- translational entropy
The entropies will be listed as multiplied by the temperature to get
units of energy

Electronic entropy                ...      0.00000000 Eh      0.00 kcal/mol
Vibrational entropy               ...      0.10042832 Eh     63.02 kcal/mol
Rotational entropy                ...      0.01855035 Eh     11.64 kcal/mol
Translational entropy             ...      0.02240642 Eh     14.06 kcal/mol
-----------------------------------------------------------------------
Final entropy term                ...      0.14138509 Eh     88.72 kcal/mol

In case the symmetry of your molecule has not been determined correctly
or in case you have a reason to use a different symmetry number we print 
out the resulting rotational entropy values for sn=1,12:

 non-linear molecules -----------------------------------
|  sn= 1 | S(rot)=       0.01855035 Eh     11.64 kcal/mol|
|  sn= 2 | S(rot)=       0.01789589 Eh     11.23 kcal/mol|
|  sn= 3 | S(rot)=       0.01751306 Eh     10.99 kcal/mol|
|  sn= 4 | S(rot)=       0.01724144 Eh     10.82 kcal/mol|
|  sn= 5 | S(rot)=       0.01703075 Eh     10.69 kcal/mol|
|  sn= 6 | S(rot)=       0.01685861 Eh     10.58 kcal/mol|
|  sn= 7 | S(rot)=       0.01671306 Eh     10.49 kcal/mol|
|  sn= 8 | S(rot)=       0.01658698 Eh     10.41 kcal/mol|
|  sn= 9 | S(rot)=       0.01647577 Eh     10.34 kcal/mol|
|  sn=10 | S(rot)=       0.01637629 Eh     10.28 kcal/mol|
|  sn=11 | S(rot)=       0.01628630 Eh     10.22 kcal/mol|
|  sn=12 | S(rot)=       0.01620415 Eh     10.17 kcal/mol|
 linear molecules ---------------------------------------
|  Dinfh | S(rot)=       0.01141896 Eh      7.17 kcal/mol|
|  Cinfv | S(rot)=       0.01207341 Eh      7.58 kcal/mol|
 --------------------------------------------------------


-------------------
GIBBS FREE ENERGY
-------------------

The Gibbs free energy is G = H - T*S

Total enthalpy                    ...  -3244.12806008 Eh 
Total entropy correction          ...     -0.14138509 Eh    -88.72 kcal/mol
-----------------------------------------------------------------------
Final Gibbs free energy         ...  -3244.26944517 Eh

For completeness - the Gibbs free energy minus the electronic energy
G-E(el)                           ...      0.24315504 Eh    152.58 kcal/mol


Maximum memory used throughout the entire PROP-calculation: 131.0 MB

--------------------------------
SUGGESTED CITATIONS FOR THIS RUN
--------------------------------

Below you find a list of papers that are relevant to this ORCA run
We neither can nor want to force you to cite these papers, but we appreciate if you do
You receive ORCA, which is the product of decades of hard work by many enthusiastic individuals, for free
The only thing we kindly ask in return is that you cite our papers,
We deeply appreciate it, if you show your appreciation for ORCA by not just citing the generic ORCA reference.

Please note that relegating all ORCA citations to the supporting information does *not* help us.
SI sections are not indexed - citations you put there will not count into any citation statistics
But we need these citations in order to attract the funding resources that allow us to do what we are doing

Therefore, if you are a happy ORCA user, please consider citing a few of the papers listed below in the main body of your paper

In addition to the list printed below, the program has created the file run.bibtex that contains the list in bibtex format
You can import this file easily into all common literature databanks and citation aid programs


List of essential papers. We consider these as the minimum necessary citations

  1. Neese, F.
     Software update: the ORCA program system, version 6.0
     WIRES Comput. Molec. Sci. 2025 15(1), e70019
     doi.org/10.1002/wcms.7019

List of papers to cite with high priority. The work reported in these papers was absolutely
necessary for this run to complete.
Our perspective: the developers of density functionals and basis sets usually get cited in chemistry papers
Good! But without the algorithms to do something with them, the functionals or basis sets would not do anything.
Hence, in our opinion, the algorithm design and method developments papers are equally worthy of getting cited

  1. Neese, F.
     An improvement of the resolution of the identity approximation for the formation of the Coulomb matrix
     J. Comp. Chem. 2003 24(14), 1740-1747
     doi.org/10.1002/jcc.10318
  2. Grimme, S.; Antony, J.; Ehrlich, S.; Krieg, H.
     A consistent and accurate ab initio parametrization of density functional dispersion correction (DFT-D) for the 94 elements H-Pu
     J. Chem. Phys. 2010 132 , 154104
     doi.org/10.1063/1.3382344
  3. Grimme, S.; Ehrlich, S.; Goerigk, L.
     Effect of the damping function in dispersion corrected density functional theory
     J. Comput. Chem. 2011 32(7), 1456-1465
     doi.org/10.1002/jcc.21759
  4. Bykov, D.; Petrenko, T.; Izsak, R.; Kossmann, S.; Becker, U.; Valeev, E.; Neese, F.
     Efficient implementation of the analytic second derivatives of Hartree-Fock and hybrid DFT energies: a detailed analysis of different approximations
     Molec. Phys. 2015 113 , 1961-1977
     doi.org/10.1080/00268976.2015.1025114
  5. Neese, F.
     The SHARK Integral Generation and Digestion System
     J. Comp. Chem. 2022 44(3), 381
     doi.org/10.1002/jcc.26942

List of suggested additional citations. These are papers that are important in the 'surrounding' of 
of this run, or papers that preceded the highly important papers. If you like your results we are grateful for a citation.

  1. Neese, F.
     The ORCA program system
     WIRES Comput. Molec. Sci. 2012 2(1), 73-78
     doi.org/10.1002/wcms.81
  2. Neese, F.
     Software update: the ORCA program system, version 4.0
     WIRES Comput. Molec. Sci. 2018 8(1), 1-6
     doi.org/10.1002/wcms.1327
  3. Neese, F.; Wennmohs, F.; Becker, U.; Riplinger, C.
     The ORCA quantum chemistry program package
     J. Chem. Phys. 2020 152(22), 224108
     doi.org/10.1063/5.0004608
  4. Neese, F.
     Software update: The ORCA program system—Version 5.0
     WIRES Comput. Molec. Sci. 2022 12(1), e1606
     doi.org/10.1002/wcms.1606

List of optional additional citations

  1. Neese, F.
     Approximate second-order SCF convergence for spin unrestricted wavefunctions
     Chem. Phys. Lett. 2000 325(1-3), 93-98
     doi.org/10.1016/s0009-2614(00)00662-x

Timings for individual modules:

Sum of individual times          ...     5746.211 sec (=  95.770 min)
Startup calculation              ...      239.570 sec (=   3.993 min)   4.2 %
SCF iterations                   ...      989.677 sec (=  16.495 min)  17.2 %
Property integrals               ...     1513.471 sec (=  25.225 min)  26.3 %
SCF Response                     ...     1002.144 sec (=  16.702 min)  17.4 %
Property calculations            ...     1456.653 sec (=  24.278 min)  25.3 %
SCF Gradient evaluation          ...      537.833 sec (=   8.964 min)   9.4 %
Geometry relaxation              ...        6.863 sec (=   0.114 min)   0.1 %
                             ****ORCA TERMINATED NORMALLY****
TOTAL RUN TIME: 0 days 1 hours 36 minutes 1 seconds 956 msec
