
                                 *****************
                                 * O   R   C   A *
                                 *****************

                                            #,                                       
                                            ###                                      
                                            ####                                     
                                            #####                                    
                                            ######                                   
                                           ########,                                 
                                     ,,################,,,,,                         
                               ,,#################################,,                 
                          ,,##########################################,,             
                       ,#########################################, ''#####,          
                    ,#############################################,,   '####,        
                  ,##################################################,,,,####,       
                ,###########''''           ''''###############################       
              ,#####''   ,,,,##########,,,,          '''####'''          '####       
            ,##' ,,,,###########################,,,                        '##       
           ' ,,###''''                  '''############,,,                           
         ,,##''                                '''############,,,,        ,,,,,,###''
      ,#''                                            '''#######################'''  
     '                                                          ''''####''''         
             ,#######,   #######,   ,#######,      ##                                
            ,#'     '#,  ##    ##  ,#'     '#,    #''#        ,####,    ,#,          
            ##       ##  ##   ,#'  ##            #'  '#       #'       ,# #          
            ##       ##  #######   ##           ,######,      #####,      #          
            '#,     ,#'  ##    ##  '#,     ,#' ,#      #,     #,   #      #          
             '#######'   ##     ##  '#######'  #'      '#     '####' #    #          



                #########################################################
                #                        -***-                          #
                #          Department of theory and spectroscopy        #
                #                                                       #
                #                      Frank Neese                      #
                #                                                       #
                #     Directorship, Architecture, Infrastructure        #
                #                    SHARK, DRIVERS                     #
                #        Core code/Algorithms in most modules           #
                #                                                       #
                #        Max Planck Institute fuer Kohlenforschung      #
                #                Kaiser Wilhelm Platz 1                 #
                #                 D-45470 Muelheim/Ruhr                 #
                #                      Germany                          #
                #                                                       #
                #                  All rights reserved                  #
                #                        -***-                          #
                #########################################################


                         Program Version 6.1.0  -  RELEASE   -
                                (GIT: $679e74b$)
                          ($2025-06-10 18:02:51 +0200$)


 With contributions from (in alphabetic order):
[Max-Planck-Institut fuer Kohlenforschung]                               
  Daniel Aravena         : Magnetic Suceptibility                        
  Michael Atanasov       : Ab Initio Ligand Field Theory (pilot matlab implementation)
  Alexander A. Auer      : GIAO ZORA, VPT2 properties, NMR spectrum      
  Ute Becker             : All parallelization in ORCA, NUMFREQ, NUMCALC 
  Giovanni Bistoni       : ED, misc. LED, open-shell LED, HFLD           
  Dmytro Bykov           : pre 5.0 version of the SCF Hessian            
  Marcos Casanova-Páez   : Triplet and SCS-CIS(D). UHF-(DLPNO)-IP/EA/STEOM-CCSD. UHF-CVS-IP/STEOM-CCSD   
  Vijay G. Chilkuri      : MRCI spin determinant printing, contributions to CSF-ICE 
  Pauline Colinet        : FMM embedding                                 
  Dipayan Datta          : RHF DLPNO-CCSD density                        
  Achintya Kumar Dutta   : EOM-CC, STEOM-CC                              
  Nicolas Foglia         : Exact transition moments, OPA infrastructure, MCD improvements    
  Dmitry Ganyushin       : Spin-Orbit,Spin-Spin,Magnetic field MRCI      
  Miquel Garcia-Rates    : C-PCM and meta-GGA Hessian, CCSD/C-PCM, Gaussian charge scheme 
  Tiago L. C. Gouveia    : GS-ROHF, GS-ROCIS                             
  Yang Guo               : DLPNO-NEVPT2, F12-NEVPT2, CIM, IAO-localization        
  Andreas Hansen         : Spin unrestricted coupled pair/coupled cluster methods 
  Ingolf Harden          : AUTO-CI MPn and infrastructure                
  Benjamin Helmich-Paris : MC-RPA, TRAH-(SCF,CASSCF), AVAS, COSX integrals, SCF dyn. polar., MC-PDFT, srDFT 
  Lee Huntington         : MR-EOM, pCC                                   
  Robert Izsak           : Overlap fitted RIJCOSX, COSX-SCS-MP3, EOM     
  Riya Kayal             : Wick's Theorem for AUTO-CI, AUTO-CI UHF-CCSDT 
  Emily Kempfer          : AUTO-CI RHF CISDT and CCSDT, approximate NEVPT4
  Christian Kollmar      : KDIIS, OOCD, Brueckner-CCSD(T), CCSD density, CASPT2, CASPT2-K, improved NEVPT2 
  Axel Koslowski         : Symmetry handling                             
  Simone Kossmann        : meta-GGA functionals, TD-DFT gradient, OOMP2, (MP2 Hessian; deprecated post 5.0) 
  Lucas Lang             : DCDCAS, Hyperfine gauge corrections, ICE-SOC+SSC
  Marvin Lechner         : AUTO-CI (C++ implementation), FIC-MRCC        
  Spencer Leger          : CASSCF response                               
  Dagmar Lenk            : GEPOL surface, SMD, ORCA-2-JSON               
  Dimitrios Liakos       : Extrapolation schemes; Compound Job, Property file
  Dimitrios Manganas     : Further ROCIS development; embedding schemes. LFT, Crystal Embedding 
  Dimitrios Pantazis     : SARC Basis sets                               
  Anastasios Papadopoulos: AUTO-CI, single reference methods and gradients 
  Taras Petrenko         : pre 6.0 DFT Hessian and TD-DFT gradient,  ECA, NRVS 
  Petra Pikulova         : Analytic Raman intensities                    
  Peter Pinski           : DLPNO-MP2, DLPNO-MP2 Gradient                 
  Shashank Vittal Rao    : ES-AILFT, MagRelax                            
  Christoph Reimann      : Effective Core Potentials                     
  Marius Retegan         : Local ZFS, SOC                                
  Christoph Riplinger    : Optimizer, TS searches, QM/MM, DLPNO-CCSD(T), (RO)-DLPNO pert. Triples 
  Michael Roemelt        : Original ROCIS implementation, recursive CI coupling coefficients
  Masaaki Saitow         : Open-shell DLPNO-CCSD energy and density      
  Barbara Sandhoefer     : DKH picture change effects                    
  Yorick L. A. Schmerwitz: GMF and freeze-and-release deltaSCF, NEB S-IDPP initial path                    
  Kantharuban Sivalingam : CASSCF convergence/infrastructure, NEVPT2, NEVPT3, NEVPT4(SD), FIC-MRCI and CEPA variants
  Bernardo de Souza      : ESD, SOC TD-DFT                               
  Georgi L. Stoychev     : AutoAux, RI-MP2 NMR, DLPNO-MP2 response, X2C  
  Van Anh Tran           : RI-MP2 g-tensors                              
  Willem Van den Heuvel  : Paramagnetic NMR                              
  Zikuan Wang            : NOTCH, Electric field optimization            
  Frank Wennmohs         : Technical directorship and infrastructure     
  Hang Xu                : AUTO-CI-Response properties                   
                                                                         
[FACCTs GmbH]                                                            
  Markus Bursch, Nicolas Foglia, Miquel Garcia-Rates, Ingolf Harden, Hagen Neugebauer, Anastasios Papadopoulos, 
  Christoph Riplinger, Bernardo de Souza, Georgi L. Stoychev                                                    
                                                                 
  APM, various basis sets, CI-OPT, improved COSX, DLPNO-Multilevel,           
  DOCKER, DRACO, updates on ESD, Fragmentator, GOAT, IRC, LR-CPCM, L-BFGS, MBIS, meta-GGA TD-DFT gradient, ML-optimized integration grids, 
  MM, NACMEs, nearIR, NEB, NEB-TS, NL-DFT gradient (VV10), 2- and 3-layer-ONIOM, interface openCOSMO-RS, QMMM,   
  Crystal-QMMM, RESP, rigid body optimization, SF, symmetry and pop. for TD-DFT, various functionals, SOLVATOR                                   
                                                                         
[Other institutions]                                                     
  V. Asgeirsson          : NEB                                           
  Christoph Bannwarth    : sTDA-DFT, sTD-DFT, PBEh-3c, B97-3c, D3        
  Giovanni Bistoni       : ETS/NOCV, ADLD/ADEX, COVALED                  
  Martin Brehm           : Molecular dynamics                            
  Ronald Cardenas        : ETS/NOCV                                      
  Martina Colucci        : COVALED                                       
  Sebastian Ehlert       : rSCAN, r2SCAN, r2SCAN-3c, D4, dhf basis sets  
  Marvin Friede          : D4 for Fr, Ra, Ac-Lr                          
  Lars Goerigk           : TD-DFT with DH, B97 family of functionals     
  Stefan Grimme          : VdW corrections, initial TS optimization, DFT functionals, gCP, sTDA/sTD-DF 
  Waldemar Hujo          : DFT-NL                                        
  H. Jonsson             : NEB                                           
  Holger Kruse           : gCP                                           
  Marcel Mueller         : wB97X-3c, vDZP basis set                      
  Hagen Neugebauer       : wr2SCAN, Native XTB                           
  Gianluca Regni         : ADLD/ADEX                                     
  Tobias Risthaus        : pre 6.0 range-separated hybrid DFT and stability analysis
  Lukas Wittmann         : regularized MP2, r2SCAN double-hybrids, wr2SCAN        
                                                                         
We gratefully acknowledge several colleagues who have allowed us to      
interface, adapt or use parts of their codes:                            
  Ed Valeev, F. Pavosevic, A. Kumar             : LibInt (2-el integral package), F12 methods 
  Garnet Chan, S. Sharma, J. Yang, R. Olivares  : DMRG                   
  Ulf Ekstrom                                   : XCFun DFT Library      
  Mihaly Kallay                                 : mrcc  (arbitrary order and MRCC methods)
  Frank Weinhold                                : gennbo (NPA and NBO analysis)           
  Simon Mueller                                 : openCOSMO-RS                            
  Christopher J. Cramer and Donald G. Truhlar   : smd solvation model                     
  S Lehtola, MJT Oliveira, MAL Marques          : LibXC Library                           
  Liviu Ungur et al                             : ANISO software                          


 Your calculation uses the libint2 library for the computation of 2-el integrals
 For citations please refer to: http://libint.valeyev.net

 Your ORCA version has been built with support for libXC version: 7.0.0
 For citations please refer to: https://libxc.gitlab.io

 This ORCA versions uses:
   CBLAS   interface :  Fast vector & matrix operations
   LAPACKE interface :  Fast linear algebra routines
   SCALAPACK package :  Parallel linear algebra routines
   Shared memory     :  Shared parallel matrices
   BLAS/LAPACK       :  OpenBLAS 0.3.29  USE64BITINT DYNAMIC_ARCH NO_AFFINITY Bulldozer SINGLE_THREADED
        Core in use  :  Bulldozer
   Copyright (c) 2011-2014, The OpenBLAS Project


  ***********************************
  * Starting time: Wed Aug 13 08:12:14 2025
  * Host name:     chromium03
  * Process ID:    201396
  * Working dir.:  /local/scratch/mehlhorn/61880
  ***********************************



***************************************
The coordinates will be read from file: start.xyz
***************************************


Your calculation utilizes the geometrical counterpoise correction gCP
Please cite in your paper:
H.Kruse, S. Grimme J.Chem.Phys., 136, (2012), 154101 
   

Your calculation utilizes the atom-pairwise dispersion correction
with the Becke-Johnson damping scheme (D3BJ)


Warning: RI is on but no J-basis has been assigned. Assigning Def2/J (nothing to worry about!)
================================================================================

cite the ECPs for Zr [Def2-ECP] as follows:
Ce-Yb(ecp-28): M. Dolg, H. Stoll, H.Preuss, J. Chem. Phys., 1989, 90, 1730-1734.
Y-Cd(ecp-28), Hf-Hg(ecp-46): D. Andrae,U. Haeussermann, M. Dolg, H. Stoll, H. Preuss, Theor. Chim. Acta, 1990, 77, 123-141.
In-Sb(ecp-28), Tl-Bi(ecp-46): B. Metz, H. Stoll, M. Dolg, J. Chem. Phys., 2000, 113, 2563-2569.
Te-Xe(ecp-28), Po-Rn(ecp-46): K. A. Peterson, D. Figgen, E. Goll, H. Stoll, M. Dolg, J. Chem. Phys., 2003, 119, 11113-11123.
Rb(ecp-28), Cs(ecp-46): T. Leininger, A. Nicklass, W. Kuechle, H. Stoll, M. Dolg, A. Bergner, Chem. Phys. Lett., 1996, 255, 274-280.
Sr(ecp-28), Ba(ecp-46): M. Kaupp, P. V. Schleyer, H. Stoll and H. Preuss, J. Chem. Phys., 1991, 94, 1360-1366.
La(ecp-46): M. Dolg, H. Stoll, A. Savin, H. Preuss, Theor. Chim. Acta, 1989, 75, 173-194.
Lu(ecp-28): X. Cao, M. Dolg, J. Chem. Phys., 2001, 115, 7348-7355.

ECP parameters for Zr [Def2-ECP] have been obtained from:
TURBOMOLE (7.0.2)

----- Orbital basis set information -----
Your calculation utilizes the basis: def2-SV(P)
   F. Weigend and R. Ahlrichs, Phys. Chem. Chem. Phys. 7, 3297 (2005).

----- AuxJ basis set information -----
Your calculation utilizes the auxiliary basis: def2/J
   H-Rn: F. Weigend, Phys. Chem. Chem. Phys. 8, 1057 (2006).
   Fr-Lr: K. Eichkorn, F. Weigend, O. Treutler, R. Ahlrichs; Theor. Chem. Acc. 97, 119 (1997).

================================================================================
                                        WARNINGS
                       Please study these warnings very carefully!
================================================================================


WARNING: Gradients are needed
  ===> : At least TightSCF should be used for SCF convergence

WARNING: Geometry Optimization
  ===> : Switching off AutoStart
         For restart on a previous wavefunction, please use MOREAD

================================================================================
                                       INPUT FILE
================================================================================
NAME = run.inp
|  1> # Geometry optimization for (AlH3)n cluster
|  2> 
|  3> %pal nprocs 24  end
|  4> 
|  5> %geom MaxIter 500 end
|  6> 
|  7> 
|  8> ! PBE def2-SV(P)
|  9> ! RKS	# closed shell for AlH3
| 10> ! D3    #  dispersion correction
| 11> ! gCP(DFT/SV(P))
| 12> ! Freq 	# Frequency analysis to check the stabiltity of the structures
| 13> 
| 14> ! NoPop # population analysis not necessary	
| 15> 
| 16> ! DEFGRID2
| 17> ! NormalSCF
| 18> ! SloppyOpt
| 19> 
| 20> ! SmallPrint
| 21> 
| 22> 
| 23> * xyzFile 0 1 start.xyz # only maingroup elements H and Al so there should be no net spin
| 24> 
| 25>                          ****END OF INPUT****
================================================================================

                       *****************************
                       * Geometry Optimization Run *
                       *****************************

Geometry optimization settings:
Update method            Update   .... BFGS
Choice of coordinates    CoordSys .... (2022) Redundant Internals
Initial Hessian          InHess   .... Almloef's Model
Max. no of cycles        MaxIter  .... 500

Convergence Tolerances:
Energy Change            TolE     ....  8.0000e-05 Eh
Max. Gradient            TolMAXG  ....  5.0000e-03 Eh/bohr
RMS Gradient             TolRMSG  ....  1.0000e-03 Eh/bohr
Max. Displacement        TolMAXD  ....  3.0000e-02 bohr
RMS Displacement         TolRMSD  ....  2.0000e-02 bohr
Strict Convergence                .... False

------------------------------------------------------------------------------
                        ORCA OPTIMIZATION COORDINATE SETUP
------------------------------------------------------------------------------

The optimization will be done in redundant internal coordinates (2022)
Making redundant internal coordinates   ...  (2022 redundants) done
Evaluating the initial hessian          ...  (Almloef) done
Evaluating the coordinates              ...  done
Calculating the B-matrix                .... done
Calculating the G-matrix                .... done
The number of degrees of freedom        .... 1150

    -----------------------------------------------------------------
                    Redundant Internal Coordinates


    -----------------------------------------------------------------
         Definition                    Initial Value    Approx d2E/dq
    -----------------------------------------------------------------
      1. B(Zr  2,Zr  1)                  3.3579         0.046378   
      2. B(Zr  3,Zr  0)                  3.4119         0.038036   
      3. B(Zr  4,Zr  1)                  3.4189         0.037062   
      4. B(Zr  4,Zr  3)                  3.4217         0.036685   
      5. B(Zr  5,Zr  0)                  3.3543         0.046991   
      6. B(Zr  5,Zr  2)                  3.4260         0.036120   
      7. B(O   6,Zr  5)                  2.0837         0.442909   
      8. B(O   6,Zr  3)                  2.1111         0.400389   
      9. B(O   6,Zr  0)                  2.1360         0.365393   
     10. B(O   7,Zr  4)                  2.1138         0.396457   
     11. B(O   7,Zr  1)                  2.1348         0.367010   
     12. B(O   7,Zr  2)                  2.0837         0.442876   
     13. B(O   8,Zr  1)                  2.1903         0.299380   
     14. B(O   8,Zr  2)                  2.1116         0.399679   
     15. B(O   8,Zr  5)                  2.1592         0.335572   
     16. B(O   9,Zr  3)                  2.0949         0.425050   
     17. B(O   9,Zr  4)                  2.1184         0.389812   
     18. B(O   9,Zr  0)                  2.1520         0.344572   
     19. B(O  10,Zr  4)                  2.0994         0.417987   
     20. B(O  10,Zr  3)                  2.1150         0.394708   
     21. B(O  10,Zr  1)                  2.1507         0.346210   
     22. B(O  11,Zr  5)                  2.1106         0.401099   
     23. B(O  11,Zr  2)                  2.1590         0.335779   
     24. B(O  11,Zr  0)                  2.1932         0.296208   
     25. B(O  12,Zr  0)                  1.9738         0.662996   
     26. B(O  13,Zr  0)                  1.9863         0.633414   
     27. B(O  14,Zr  0)                  2.0452         0.510069   
     28. B(O  15,Zr  0)                  2.0681         0.468953   
     29. B(O  16,Zr  1)                  2.0481         0.504769   
     30. B(O  17,Zr  1)                  2.0613         0.480741   
     31. B(O  18,Zr  1)                  1.9733         0.664368   
     32. B(O  19,Zr  1)                  1.9851         0.636097   
     33. B(O  20,Zr  2)                  1.9915         0.621359   
     34. B(O  21,Zr  2)                  1.9911         0.622300   
     35. B(O  22,Zr  2)                  1.9809         0.646053   
     36. B(O  23,Zr  2)                  2.0702         0.465312   
     37. B(O  24,Zr  3)                  2.0545         0.492952   
     38. B(O  25,Zr  3)                  1.9917         0.620866   
     39. B(O  26,Zr  3)                  2.0292         0.541086   
     40. B(O  27,Zr  3)                  1.9896         0.625713   
     41. B(O  28,Zr  4)                  1.9891         0.626755   
     42. B(O  29,Zr  4)                  2.0377         0.524346   
     43. B(O  30,Zr  4)                  1.9906         0.623498   
     44. B(O  31,Zr  4)                  2.0479         0.505082   
     45. B(O  32,Zr  5)                  2.0627         0.478351   
     46. B(O  33,Zr  5)                  1.9829         0.641209   
     47. B(O  34,Zr  5)                  1.9875         0.630610   
     48. B(O  35,Zr  5)                  1.9923         0.619650   
     49. B(C  36,O  33)                  1.2987         0.782593   
     50. B(C  36,O  12)                  1.2989         0.781964   
     51. B(C  37,O  25)                  1.3003         0.777910   
     52. B(C  37,O  13)                  1.3018         0.773840   
     53. B(C  38,O  21)                  1.2945         0.794696   
     54. B(C  38,O  14)                  1.2955         0.791931   
     55. B(C  39,O  29)                  1.3021         0.772945   
     56. B(C  39,O  15)                  1.2998         0.779302   
     57. B(C  40,O  34)                  1.2948         0.794017   
     58. B(C  40,O  16)                  1.2954         0.792151   
     59. B(C  41,O  26)                  1.3020         0.773144   
     60. B(C  41,O  17)                  1.2996         0.779995   
     61. B(C  42,O  22)                  1.2987         0.782608   
     62. B(C  42,O  18)                  1.2989         0.782148   
     63. B(C  43,O  19)                  1.3018         0.773657   
     64. B(C  43,O  30)                  1.3005         0.777385   
     65. B(C  44,O  35)                  1.3022         0.772692   
     66. B(C  44,O  20)                  1.3021         0.772785   
     67. B(C  45,O  23)                  1.2966         0.788614   
     68. B(C  45,O  31)                  1.2968         0.787960   
     69. B(C  46,O  24)                  1.2973         0.786772   
     70. B(C  46,O  32)                  1.2961         0.790165   
     71. B(C  47,O  28)                  1.3014         0.774986   
     72. B(C  47,O  27)                  1.3018         0.773622   
     73. B(H  48,C  41)                  1.0879         0.362948   
     74. B(H  49,C  42)                  1.0901         0.359904   
     75. B(H  50,C  38)                  1.0855         0.366055   
     76. B(H  51,C  37)                  1.0917         0.357913   
     77. B(H  52,C  43)                  1.0917         0.357835   
     78. B(H  53,C  47)                  1.0915         0.358162   
     79. B(H  54,C  39)                  1.0881         0.362641   
     80. B(H  55,C  45)                  1.0848         0.367003   
     81. B(H  56,C  40)                  1.0858         0.365716   
     82. B(H  57,C  46)                  1.0847         0.367183   
     83. B(H  58,C  36)                  1.0902         0.359878   
     84. B(H  59,C  44)                  1.0920         0.357511   
     85. B(Al 61,Al 60)                  3.3337         0.024318   
     86. B(Al 62,Al 60)                  3.2525         0.032759   
     87. B(Al 63,Al 62)                  3.1884         0.041466   
     88. B(Al 63,Al 61)                  3.2341         0.035056   
     89. B(Al 64,Al 63)                  3.2027         0.039347   
     90. B(Al 64,Al 62)                  2.7180         0.233415   
     91. B(Al 65,Al 64)                  2.8416         0.148217   
     92. B(Al 65,Al 63)                  3.1211         0.053088   
     93. B(Al 66,Al 65)                  2.7104         0.240008   
     94. B(Al 66,Al 63)                  3.2362         0.034785   
     95. B(H  67,Al 60)                  1.5955         0.394074   
     96. B(H  68,H  53)                  2.6909         0.010000   
     97. B(H  68,Al 60)                  1.5964         0.392756   
     98. B(H  69,Al 61)                  1.5953         0.394263   
     99. B(H  70,Al 61)                  1.5970         0.391834   
    100. B(H  70,C  47)                  2.9904         0.010000   
    101. B(H  70,H  53)                  2.9856         0.010000   
    102. B(H  70,O  27)                  2.7172         0.010000   
    103. B(H  71,Al 61)                  1.6725         0.296902   
    104. B(H  71,Al 60)                  1.6721         0.297362   
    105. B(H  71,H  53)                  2.8773         0.010000   
    106. B(H  71,O  27)                  2.7622         0.010000   
    107. B(H  72,Al 62)                  1.6861         0.282438   
    108. B(H  72,Al 60)                  1.6710         0.298542   
    109. B(H  73,Al 62)                  1.6118         0.371171   
    110. B(H  73,C  37)                  3.0095         0.010000   
    111. B(H  73,O  25)                  2.9190         0.010000   
    112. B(H  73,H  51)                  2.6897         0.010000   
    113. B(H  74,Al 64)                  1.6922         0.276190   
    114. B(H  74,Al 62)                  1.6858         0.282795   
    115. B(H  75,Al 65)                  1.6692         0.300580   
    116. B(H  75,Al 64)                  1.6763         0.292797   
    117. B(H  75,H  57)                  2.7526         0.010000   
    118. B(H  76,Al 64)                  1.6958         0.272588   
    119. B(H  76,Al 63)                  1.6824         0.286299   
    120. B(H  77,Al 64)                  1.6846         0.283990   
    121. B(H  77,Al 62)                  1.6821         0.286665   
    122. B(H  77,C  46)                  2.8834         0.010000   
    123. B(H  77,O  24)                  2.4870         0.010000   
    124. B(H  77,H  57)                  2.4521         0.010000   
    125. B(H  78,Al 64)                  1.6124         0.370260   
    126. B(H  79,Al 66)                  1.6691         0.300630   
    127. B(H  79,Al 65)                  1.6658         0.304310   
    128. B(H  80,Al 66)                  1.6034         0.382765   
    129. B(H  81,Al 66)                  1.6048         0.380827   
    130. B(H  81,H  48)                  2.5765         0.010000   
    131. B(H  82,Al 66)                  1.6822         0.286581   
    132. B(H  82,Al 63)                  1.6829         0.285776   
    133. B(H  82,H  48)                  3.0258         0.010000   
    134. B(H  83,Al 63)                  1.6774         0.291610   
    135. B(H  83,Al 61)                  1.6691         0.300704   
    136. B(H  83,C  41)                  3.0035         0.010000   
    137. B(H  83,O  26)                  2.8856         0.010000   
    138. B(H  83,H  48)                  2.4916         0.010000   
    139. B(H  84,Al 63)                  1.6830         0.285744   
    140. B(H  84,Al 62)                  1.6988         0.269562   
    141. B(H  85,Al 63)                  1.6061         0.378948   
    142. B(H  86,O  26)                  2.3563         0.010000   
    143. B(H  86,Al 65)                  1.6866         0.281997   
    144. B(H  86,Al 63)                  1.6842         0.284399   
    145. B(H  86,O  24)                  3.0262         0.010000   
    146. B(H  86,C  41)                  2.9604         0.010000   
    147. B(H  86,H  48)                  2.7648         0.010000   
    148. B(H  87,Al 65)                  1.6036         0.382516   
    149. B(H  87,O  24)                  3.0428         0.010000   
    150. B(H  87,H  57)                  2.9894         0.010000   
    151. B(H  87,C  46)                  2.7726         0.010000   
    152. B(H  87,C  40)                  2.6790         0.010000   
    153. B(H  87,O  34)                  2.6292         0.010000   
    154. B(H  87,H  56)                  2.6058         0.010000   
    155. A(Zr  5,Zr  0,O  15)          164.0764         0.355646   
    156. A(O  11,Zr  0,O  13)          141.3604         0.475748   
    157. A(Zr  3,Zr  0,O  15)           97.1393         0.343187   
    158. A(O  11,Zr  0,O  12)           80.1137         0.479765   
    159. A(O   6,Zr  0,O  11)           65.3891         0.430468   
    160. A(O   6,Zr  0,O   9)           64.8585         0.442360   
    161. A(Zr  3,Zr  0,O  11)           96.0644         0.318082   
    162. A(Zr  3,Zr  0,O  14)          143.4973         0.348068   
    163. A(O   6,Zr  0,O  14)          133.5208         0.475165   
    164. A(O  13,Zr  0,O  15)           83.6134         0.518131   
    165. A(O   9,Zr  0,O  14)          111.1819         0.470071   
    166. A(O   6,Zr  0,O  13)           85.5451         0.494567   
    167. A(O  13,Zr  0,O  14)          140.5080         0.526372   
    168. A(Zr  3,Zr  0,O   6)           36.3021         0.329229   
    169. A(O   9,Zr  0,O  12)          165.6364         0.493373   
    170. A(O  11,Zr  0,O  15)          134.7139         0.450308   
    171. A(Zr  5,Zr  0,O  12)           74.2560         0.377384   
    172. A(O   6,Zr  0,O  15)          132.4618         0.467889   
    173. A(O   9,Zr  0,O  15)           68.7233         0.462891   
    174. A(Zr  5,Zr  0,O   6)           36.8123         0.341003   
    175. A(Zr  5,Zr  0,O  14)          106.8153         0.360766   
    176. A(Zr  3,Zr  0,O  13)           69.6507         0.361084   
    177. A(O   9,Zr  0,O  11)          100.3305         0.425964   
    178. A(O  12,Zr  0,O  13)           82.5382         0.553117   
    179. A(Zr  3,Zr  0,Zr  5)           73.1054         0.258063   
    180. A(O   6,Zr  0,O  12)          103.0339         0.498778   
    181. A(Zr  3,Zr  0,O  12)          129.6909         0.363910   
    182. A(Zr  3,Zr  0,O   9)           35.9773         0.326060   
    183. A(O  11,Zr  0,O  14)           70.4800         0.457247   
    184. A(Zr  5,Zr  0,O  11)           37.9206         0.329311   
    185. A(Zr  5,Zr  0,O   9)           97.1485         0.337679   
    186. A(Zr  5,Zr  0,O  13)          103.9712         0.374420   
    187. A(O   9,Zr  0,O  13)           88.5862         0.489217   
    188. A(O  14,Zr  0,O  15)           73.3097         0.497602   
    189. A(O  12,Zr  0,O  15)          121.0686         0.522588   
    190. A(O  12,Zr  0,O  14)           82.6252         0.530914   
    191. A(O   7,Zr  1,O  19)           85.2097         0.495361   
    192. A(Zr  2,Zr  1,O  17)          164.1215         0.356354   
    193. A(Zr  2,Zr  1,O  16)          106.8932         0.359321   
    194. A(Zr  2,Zr  1,Zr  4)           72.9086         0.256575   
    195. A(O  17,Zr  1,O  18)          120.9108         0.525235   
    196. A(O   7,Zr  1,O   8)           65.5850         0.431635   
    197. A(O  16,Zr  1,O  18)           82.5401         0.530077   
    198. A(Zr  2,Zr  1,O   8)           37.8561         0.329177   
    199. A(Zr  2,Zr  1,O   7)           36.7255         0.340508   
    200. A(O   8,Zr  1,O  16)           70.5737         0.457265   
    201. A(O  10,Zr  1,O  18)          165.5759         0.493996   
    202. A(Zr  4,Zr  1,O  19)           69.6873         0.359750   
    203. A(O  17,Zr  1,O  19)           83.5376         0.520962   
    204. A(Zr  4,Zr  1,O  18)          129.6770         0.362429   
    205. A(Zr  4,Zr  1,O  17)           97.3368         0.343123   
    206. A(O  10,Zr  1,O  17)           68.8891         0.465401   
    207. A(O  10,Zr  1,O  16)          111.3405         0.469580   
    208. A(O   8,Zr  1,O  19)          141.2832         0.477053   
    209. A(O   7,Zr  1,O  18)          102.8211         0.499380   
    210. A(Zr  4,Zr  1,O   8)           95.9895         0.317291   
    211. A(O  10,Zr  1,O  19)           88.4586         0.490030   
    212. A(O  18,Zr  1,O  19)           82.5965         0.553778   
    213. A(O   7,Zr  1,O  10)           65.0007         0.443093   
    214. A(O   8,Zr  1,O  17)          134.8862         0.453221   
    215. A(O  16,Zr  1,O  17)           73.2710         0.498935   
    216. A(Zr  4,Zr  1,O   7)           36.2087         0.328061   
    217. A(Zr  4,Zr  1,O  16)          143.5556         0.345944   
    218. A(Zr  2,Zr  1,O  10)           97.0217         0.337209   
    219. A(O  16,Zr  1,O  19)          140.4475         0.525757   
    220. A(Zr  4,Zr  1,O  10)           35.9369         0.324925   
    221. A(Zr  2,Zr  1,O  19)          103.9874         0.373847   
    222. A(O   7,Zr  1,O  16)          133.8907         0.474639   
    223. A(Zr  2,Zr  1,O  18)           74.3759         0.376664   
    224. A(O   8,Zr  1,O  10)          100.4671         0.427140   
    225. A(O   7,Zr  1,O  17)          132.6891         0.470405   
    226. A(O   8,Zr  1,O  18)           80.0007         0.480891   
    227. A(O  22,Zr  2,O  23)           80.8134         0.519295   
    228. A(O   8,Zr  2,O  22)           79.9755         0.504739   
    229. A(O   8,Zr  2,O  11)           69.5846         0.447502   
    230. A(O   8,Zr  2,O  23)          127.0377         0.474978   
    231. A(O  11,Zr  2,O  22)          142.3113         0.488665   
    232. A(Zr  1,Zr  2,O   8)           39.5342         0.345409   
    233. A(Zr  1,Zr  2,O  23)           87.8543         0.354387   
    234. A(Zr  5,Zr  2,O  20)           71.5398         0.356753   
    235. A(O  21,Zr  2,O  22)          135.2014         0.548560   
    236. A(Zr  5,Zr  2,O   8)           37.1393         0.331304   
    237. A(Zr  1,Zr  2,O   7)           37.7822         0.351435   
    238. A(O   8,Zr  2,O  20)           91.8476         0.501088   
    239. A(O   7,Zr  2,O  21)          103.0742         0.510916   
    240. A(Zr  5,Zr  2,O   7)           84.8413         0.336998   
    241. A(O   7,Zr  2,O  11)           83.6413         0.455927   
    242. A(Zr  1,Zr  2,O  20)          128.6533         0.372339   
    243. A(O   7,Zr  2,O  20)          156.3729         0.510772   
    244. A(O   7,Zr  2,O  23)           70.5894         0.484048   
    245. A(O   8,Zr  2,O  21)          143.5400         0.501229   
    246. A(O   7,Zr  2,O  22)          105.3671         0.514509   
    247. A(O  11,Zr  2,O  23)          135.4923         0.460054   
    248. A(O  20,Zr  2,O  21)           85.8235         0.544524   
    249. A(Zr  5,Zr  2,O  22)          107.0954         0.359125   
    250. A(Zr  5,Zr  2,O  23)          155.4251         0.339788   
    251. A(O   7,Zr  2,O   8)           67.8958         0.470684   
    252. A(Zr  1,Zr  2,O  21)          140.7399         0.372437   
    253. A(O  20,Zr  2,O  23)          133.0336         0.515516   
    254. A(Zr  5,Zr  2,O  21)          109.3011         0.356845   
    255. A(Zr  5,Zr  2,O  11)           36.1607         0.321936   
    256. A(O  11,Zr  2,O  20)           77.6924         0.485155   
    257. A(Zr  1,Zr  2,O  11)           93.3807         0.335496   
    258. A(O  20,Zr  2,O  22)           81.7333         0.548403   
    259. A(O  21,Zr  2,O  23)           76.9015         0.515662   
    260. A(Zr  1,Zr  2,Zr  5)           72.3217         0.255601   
    261. A(Zr  1,Zr  2,O  22)           75.4453         0.374850   
    262. A(O  11,Zr  2,O  21)           74.3943         0.485291   
    263. A(Zr  4,Zr  3,O  27)           71.7942         0.358120   
    264. A(O  24,Zr  3,O  27)          133.9742         0.521806   
    265. A(Zr  0,Zr  3,O  10)           91.6725         0.333462   
    266. A(O   9,Zr  3,O  10)           68.7518         0.466082   
    267. A(Zr  4,Zr  3,O  10)           35.5652         0.331469   
    268. A(Zr  4,Zr  3,O  25)          107.8958         0.357646   
    269. A(O   6,Zr  3,O  27)          154.3164         0.501905   
    270. A(O   9,Zr  3,O  26)          141.2795         0.493988   
    271. A(O   6,Zr  3,O  26)          109.0155         0.488546   
    272. A(O  26,Zr  3,O  27)           84.6170         0.531030   
    273. A(O   6,Zr  3,O  10)           85.7068         0.461015   
    274. A(O   9,Zr  3,O  27)           89.3235         0.507529   
    275. A(Zr  0,Zr  3,O   6)           36.8000         0.334254   
    276. A(Zr  0,Zr  3,O  27)          123.5326         0.360332   
    277. A(O  25,Zr  3,O  26)          135.8319         0.530253   
    278. A(O  24,Zr  3,O  26)           80.7329         0.507803   
    279. A(O  10,Zr  3,O  26)           72.5954         0.487256   
    280. A(Zr  4,Zr  3,O   6)           83.2518         0.332254   
    281. A(Zr  4,Zr  3,O  26)          106.8904         0.349412   
    282. A(Zr  0,Zr  3,O  26)          144.6753         0.351553   
    283. A(Zr  4,Zr  3,O   9)           35.9262         0.335567   
    284. A(O   9,Zr  3,O  25)           80.2779         0.506793   
    285. A(O   6,Zr  3,O  25)          101.3346         0.501179   
    286. A(Zr  0,Zr  3,O  25)           74.6438         0.359855   
    287. A(O  10,Zr  3,O  24)          136.4075         0.478945   
    288. A(Zr  0,Zr  3,O   9)           37.1201         0.337594   
    289. A(O   9,Zr  3,O  24)          127.5623         0.485537   
    290. A(O  24,Zr  3,O  25)           79.7013         0.521045   
    291. A(Zr  4,Zr  3,O  24)          154.2060         0.343979   
    292. A(Zr  0,Zr  3,O  24)           90.7429         0.346075   
    293. A(O  25,Zr  3,O  27)           81.2483         0.545007   
    294. A(Zr  0,Zr  3,Zr  4)           68.6027         0.248849   
    295. A(O   6,Zr  3,O  24)           71.0149         0.480209   
    296. A(O   6,Zr  3,O   9)           66.2842         0.467303   
    297. A(O  10,Zr  3,O  27)           77.6069         0.500572   
    298. A(O  10,Zr  3,O  25)          142.3442         0.499848   
    299. A(Zr  1,Zr  4,Zr  3)           68.3848         0.247914   
    300. A(Zr  3,Zr  4,O  10)           35.8701         0.334634   
    301. A(O   7,Zr  4,O   9)           86.0824         0.459138   
    302. A(O  10,Zr  4,O  28)           90.8732         0.506102   
    303. A(O  28,Zr  4,O  30)           82.1882         0.545615   
    304. A(O  30,Zr  4,O  31)           80.5302         0.523845   
    305. A(O   9,Zr  4,O  29)           72.5223         0.483317   
    306. A(O  28,Zr  4,O  31)          132.5929         0.524358   
    307. A(O  10,Zr  4,O  31)          128.2437         0.486215   
    308. A(O   9,Zr  4,O  31)          136.4836         0.479991   
    309. A(Zr  3,Zr  4,O  31)          154.7439         0.345385   
    310. A(Zr  1,Zr  4,O  31)           91.5947         0.345980   
    311. A(O  29,Zr  4,O  30)          137.0788         0.527545   
    312. A(O  10,Zr  4,O  30)           79.5674         0.505610   
    313. A(O   7,Zr  4,O  10)           66.2580         0.465030   
    314. A(O   7,Zr  4,O  30)          100.7902         0.500653   
    315. A(Zr  3,Zr  4,O  30)          107.1041         0.357904   
    316. A(Zr  1,Zr  4,O  30)           74.2855         0.358527   
    317. A(O  28,Zr  4,O  29)           83.6620         0.528062   
    318. A(O   7,Zr  4,O  31)           71.3985         0.481489   
    319. A(O   7,Zr  4,O  29)          108.4275         0.484829   
    320. A(Zr  3,Zr  4,O  29)          106.8679         0.347567   
    321. A(Zr  1,Zr  4,O  29)          143.7955         0.348166   
    322. A(O   9,Zr  4,O  28)           77.3328         0.499565   
    323. A(O   7,Zr  4,O  28)          155.6295         0.501139   
    324. A(O   9,Zr  4,O  10)           68.6041         0.463595   
    325. A(Zr  3,Zr  4,O   7)           83.4467         0.331711   
    326. A(Zr  1,Zr  4,O   9)           91.4194         0.331345   
    327. A(O  29,Zr  4,O  31)           79.8635         0.507129   
    328. A(Zr  3,Zr  4,O  28)           72.6630         0.358221   
    329. A(Zr  1,Zr  4,O   7)           36.6268         0.332274   
    330. A(O   9,Zr  4,O  30)          141.4857         0.499081   
    331. A(Zr  1,Zr  4,O  10)           36.9581         0.335203   
    332. A(O  10,Zr  4,O  29)          140.9942         0.489595   
    333. A(Zr  1,Zr  4,O  28)          125.1375         0.358845   
    334. A(Zr  3,Zr  4,O   9)           35.4658         0.330785   
    335. A(O  34,Zr  5,O  35)           85.5846         0.545609   
    336. A(O  32,Zr  5,O  35)          133.2464         0.517925   
    337. A(O   8,Zr  5,O  33)          141.4582         0.487929   
    338. A(Zr  0,Zr  5,O  35)          129.3963         0.373005   
    339. A(O  32,Zr  5,O  33)           80.4554         0.521258   
    340. A(O   8,Zr  5,O  11)           69.5990         0.447740   
    341. A(O  11,Zr  5,O  34)          143.9363         0.502800   
    342. A(O   6,Zr  5,O  34)          102.5731         0.512192   
    343. A(Zr  2,Zr  5,O  34)          109.8410         0.357650   
    344. A(Zr  0,Zr  5,O  34)          140.4204         0.374134   
    345. A(O  11,Zr  5,O  33)           79.5520         0.504364   
    346. A(Zr  2,Zr  5,O   6)           84.4751         0.337002   
    347. A(O   6,Zr  5,O  33)          106.3893         0.513792   
    348. A(O  33,Zr  5,O  34)          135.2205         0.549158   
    349. A(O  11,Zr  5,O  32)          125.7773         0.477711   
    350. A(O   8,Zr  5,O  32)          136.5804         0.462331   
    351. A(O  32,Zr  5,O  34)           77.8511         0.519630   
    352. A(Zr  2,Zr  5,O  32)          155.0552         0.341361   
    353. A(Zr  0,Zr  5,O  32)           86.5414         0.356846   
    354. A(O   8,Zr  5,O  35)           77.3610         0.484853   
    355. A(O   6,Zr  5,O  35)          156.1429         0.510516   
    356. A(Zr  2,Zr  5,O  35)           71.6725         0.356586   
    357. A(Zr  0,Zr  5,O   6)           37.8978         0.352219   
    358. A(O   6,Zr  5,O  11)           67.7834         0.470997   
    359. A(O  33,Zr  5,O  35)           81.5088         0.547335   
    360. A(O  11,Zr  5,O  35)           92.3381         0.501162   
    361. A(Zr  0,Zr  5,Zr  2)           72.4690         0.256096   
    362. A(O   6,Zr  5,O  32)           70.6106         0.486534   
    363. A(Zr  0,Zr  5,O   8)           93.5170         0.336194   
    364. A(Zr  0,Zr  5,O  11)           39.6873         0.346378   
    365. A(O   6,Zr  5,O   8)           83.1509         0.455882   
    366. A(Zr  2,Zr  5,O  11)           37.1266         0.331499   
    367. A(Zr  0,Zr  5,O  33)           75.6528         0.375211   
    368. A(Zr  2,Zr  5,O  33)          106.3158         0.358665   
    369. A(Zr  2,Zr  5,O   8)           36.1888         0.321903   
    370. A(O   8,Zr  5,O  34)           74.8472         0.486427   
    371. A(Zr  0,O   6,Zr  3)          106.8979         0.454573   
    372. A(Zr  3,O   6,Zr  5)          147.7706         0.470844   
    373. A(Zr  0,O   6,Zr  5)          105.2899         0.463021   
    374. A(Zr  2,O   7,Zr  4)          147.2251         0.469986   
    375. A(Zr  1,O   7,Zr  4)          107.1645         0.454122   
    376. A(Zr  1,O   7,Zr  2)          105.4923         0.463388   
    377. A(Zr  2,O   8,Zr  5)          106.6720         0.447452   
    378. A(Zr  1,O   8,Zr  2)          102.6097         0.438312   
    379. A(Zr  1,O   8,Zr  5)          133.9662         0.424760   
    380. A(Zr  3,O   9,Zr  4)          108.6080         0.465018   
    381. A(Zr  0,O   9,Zr  4)          128.7898         0.447572   
    382. A(Zr  0,O   9,Zr  3)          106.9026         0.454664   
    383. A(Zr  1,O  10,Zr  3)          128.6311         0.448972   
    384. A(Zr  3,O  10,Zr  4)          108.5647         0.464654   
    385. A(Zr  1,O  10,Zr  4)          107.1051         0.453671   
    386. A(Zr  2,O  11,Zr  5)          106.7127         0.447790   
    387. A(Zr  0,O  11,Zr  5)          102.3920         0.437751   
    388. A(Zr  0,O  11,Zr  2)          134.1314         0.423998   
    389. A(Zr  0,O  12,C  36)          132.3904         0.509468   
    390. A(Zr  0,O  13,C  37)          130.0874         0.504164   
    391. A(Zr  0,O  14,C  38)          141.4739         0.486377   
    392. A(Zr  0,O  15,C  39)          126.4227         0.477473   
    393. A(Zr  1,O  16,C  40)          141.4319         0.485464   
    394. A(Zr  1,O  17,C  41)          126.3700         0.479741   
    395. A(Zr  1,O  18,C  42)          132.2559         0.509688   
    396. A(Zr  1,O  19,C  43)          129.9951         0.504539   
    397. A(Zr  2,O  20,C  44)          127.2367         0.502235   
    398. A(Zr  2,O  21,C  38)          138.0808         0.505001   
    399. A(Zr  2,O  22,C  42)          130.3396         0.507090   
    400. A(Zr  2,O  23,C  45)          136.5825         0.477833   
    401. A(Zr  3,O  24,H  77)          125.8956         0.175804   
    402. A(Zr  3,O  24,H  86)           93.8738         0.144440   
    403. A(C  46,O  24,H  86)          112.5070         0.142232   
    404. A(C  46,O  24,H  77)           93.9629         0.172348   
    405. A(Zr  3,O  24,H  87)          116.5759         0.143683   
    406. A(H  77,O  24,H  87)           85.6108         0.100575   
    407. A(C  46,O  24,H  87)           65.6589         0.141505   
    408. A(H  77,O  24,H  86)           60.0792         0.100736   
    409. A(Zr  3,O  24,C  46)          139.8591         0.482736   
    410. A(H  86,O  24,H  87)           52.4117         0.096393   
    411. A(Zr  3,O  25,C  37)          125.4774         0.502779   
    412. A(Zr  3,O  25,H  73)          120.5243         0.152856   
    413. A(C  37,O  25,H  73)           81.2500         0.147045   
    414. A(C  41,O  26,H  86)          104.3062         0.181547   
    415. A(Zr  3,O  26,H  86)          118.4075         0.187829   
    416. A(H  83,O  26,H  86)           59.2856         0.103705   
    417. A(C  41,O  26,H  83)           82.3459         0.148598   
    418. A(Zr  3,O  26,H  83)          115.9752         0.152643   
    419. A(Zr  3,O  26,C  41)          137.1742         0.489540   
    420. A(C  47,O  27,H  70)           88.9047         0.157569   
    421. A(H  70,O  27,H  71)           60.1036         0.101071   
    422. A(C  47,O  27,H  71)          100.5350         0.155050   
    423. A(Zr  3,O  27,H  71)          128.4867         0.161882   
    424. A(Zr  3,O  27,C  47)          128.5885         0.502990   
    425. A(Zr  3,O  27,H  70)          125.9077         0.164661   
    426. A(Zr  4,O  28,C  47)          127.2869         0.503311   
    427. A(Zr  4,O  29,C  39)          135.8022         0.486677   
    428. A(Zr  4,O  30,C  43)          125.5970         0.503112   
    429. A(Zr  4,O  31,C  45)          140.0502         0.485043   
    430. A(Zr  5,O  32,C  46)          136.7127         0.480446   
    431. A(Zr  5,O  33,C  36)          129.9367         0.506376   
    432. A(C  40,O  34,H  87)           78.0285         0.163206   
    433. A(Zr  5,O  34,H  87)          122.9724         0.170544   
    434. A(Zr  5,O  34,C  40)          137.7899         0.506171   
    435. A(Zr  5,O  35,C  44)          126.9430         0.501966   
    436. A(O  12,C  36,H  58)          116.2186         0.364816   
    437. A(O  12,C  36,O  33)          127.5256         0.466079   
    438. A(O  33,C  36,H  58)          116.2557         0.364866   
    439. A(O  13,C  37,O  25)          126.8313         0.464678   
    440. A(O  25,C  37,H  73)           73.4693         0.144852   
    441. A(H  51,C  37,H  73)           62.6959         0.129858   
    442. A(O  13,C  37,H  73)          133.3884         0.144786   
    443. A(O  25,C  37,H  51)          116.5662         0.364150   
    444. A(O  13,C  37,H  51)          116.5978         0.363824   
    445. A(O  14,C  38,O  21)          129.1039         0.468477   
    446. A(O  21,C  38,H  50)          115.4413         0.366894   
    447. A(O  14,C  38,H  50)          115.4523         0.366675   
    448. A(O  15,C  39,O  29)          129.5964         0.464731   
    449. A(O  29,C  39,H  54)          115.2731         0.364569   
    450. A(O  15,C  39,H  54)          115.1248         0.365080   
    451. A(O  34,C  40,H  87)           73.7558         0.162857   
    452. A(O  16,C  40,H  87)          120.1742         0.162818   
    453. A(O  16,C  40,O  34)          129.0473         0.468427   
    454. A(H  56,C  40,H  87)           74.3854         0.143043   
    455. A(O  34,C  40,H  56)          115.5233         0.366782   
    456. A(O  16,C  40,H  56)          115.4254         0.366634   
    457. A(O  17,C  41,O  26)          129.7079         0.464829   
    458. A(H  48,C  41,H  83)           52.2977         0.130190   
    459. A(O  17,C  41,H  83)          146.3827         0.145162   
    460. A(H  83,C  41,H  86)           52.3945         0.097682   
    461. A(O  26,C  41,H  86)           50.4687         0.147099   
    462. A(O  17,C  41,H  86)          160.0266         0.147215   
    463. A(O  26,C  41,H  83)           72.2100         0.145050   
    464. A(O  26,C  41,H  48)          115.3899         0.364638   
    465. A(O  17,C  41,H  48)          114.8977         0.365189   
    466. A(H  48,C  41,H  86)           69.0507         0.131695   
    467. A(O  18,C  42,O  22)          127.4938         0.466100   
    468. A(O  18,C  42,H  49)          116.2367         0.364835   
    469. A(O  22,C  42,H  49)          116.2695         0.364871   
    470. A(O  30,C  43,H  52)          116.4976         0.364094   
    471. A(O  19,C  43,H  52)          116.6009         0.363795   
    472. A(O  19,C  43,O  30)          126.8959         0.464600   
    473. A(O  35,C  44,H  59)          116.4196         0.363661   
    474. A(O  20,C  44,H  59)          116.4176         0.363669   
    475. A(O  20,C  44,O  35)          127.1628         0.463990   
    476. A(O  23,C  45,H  55)          114.9569         0.366574   
    477. A(O  23,C  45,O  31)          130.1059         0.467387   
    478. A(O  31,C  45,H  55)          114.9296         0.366522   
    479. A(H  57,C  46,H  87)           90.6907         0.139040   
    480. A(O  32,C  46,H  87)           90.5606         0.157250   
    481. A(O  32,C  46,H  57)          114.7207         0.366728   
    482. A(O  24,C  46,H  57)          115.1925         0.366458   
    483. A(H  77,C  46,H  87)           83.8386         0.100215   
    484. A(H  57,C  46,H  77)           56.2226         0.134637   
    485. A(O  32,C  46,H  77)          169.1078         0.151244   
    486. A(O  24,C  46,H  77)           59.3685         0.151184   
    487. A(O  24,C  46,O  32)          130.0860         0.467426   
    488. A(O  24,C  46,H  87)           89.1088         0.157183   
    489. A(H  53,C  47,H  70)           79.2268         0.130517   
    490. A(O  28,C  47,H  70)          125.3702         0.145696   
    491. A(O  27,C  47,H  70)           65.2934         0.145673   
    492. A(O  28,C  47,H  53)          116.0864         0.363959   
    493. A(O  27,C  47,H  53)          116.3515         0.363849   
    494. A(O  27,C  47,O  28)          127.5605         0.464333   
    495. A(H  81,H  48,H  83)          105.2813         0.094531   
    496. A(C  41,H  48,H  81)          125.2015         0.121312   
    497. A(C  41,H  48,H  83)          107.4936         0.123675   
    498. A(H  81,H  48,H  82)           52.5600         0.092547   
    499. A(H  82,H  48,H  86)           41.1516         0.092033   
    500. A(H  82,H  48,H  83)           53.2021         0.092807   
    501. A(C  41,H  48,H  82)          130.5083         0.111239   
    502. A(H  81,H  48,H  86)           71.0347         0.093407   
    503. A(H  83,H  48,H  86)           59.8547         0.093730   
    504. A(C  41,H  48,H  86)           89.3906         0.116629   
    505. A(C  37,H  51,H  73)           96.1643         0.118317   
    506. A(H  68,H  53,H  70)          111.6790         0.092336   
    507. A(C  47,H  53,H  70)           79.7259         0.111927   
    508. A(H  68,H  53,H  71)           57.3988         0.092650   
    509. A(C  47,H  53,H  71)          100.7245         0.114086   
    510. A(H  70,H  53,H  71)           55.7807         0.091857   
    511. A(C  47,H  53,H  68)          100.1258         0.118294   
    512. A(C  40,H  56,H  87)           81.9545         0.120590   
    513. A(C  46,H  57,H  77)          102.2044         0.124928   
    514. A(H  75,H  57,H  87)           54.1014         0.092159   
    515. A(H  77,H  57,H  87)           87.4039         0.093055   
    516. A(C  46,H  57,H  87)           68.0356         0.111983   
    517. A(H  75,H  57,H  77)           52.0118         0.093938   
    518. A(C  46,H  57,H  75)          114.5047         0.116985   
    519. A(H  71,Al 60,H  72)          111.1275         0.347414   
    520. A(H  68,Al 60,H  72)          107.2290         0.364211   
    521. A(H  67,Al 60,H  72)          109.4764         0.364419   
    522. A(Al 62,Al 60,H  72)           14.4070         0.280332   
    523. A(Al 61,Al 60,H  72)          106.7029         0.267853   
    524. A(H  68,Al 60,H  71)          110.0729         0.363964   
    525. A(H  67,Al 60,H  71)          108.3679         0.364173   
    526. A(Al 62,Al 60,H  71)           99.4826         0.280160   
    527. A(H  67,Al 60,H  68)          110.5741         0.382059   
    528. A(Al 62,Al 60,H  68)          104.9296         0.292586   
    529. A(Al 61,Al 60,H  68)          113.4154         0.279308   
    530. A(Al 62,Al 60,H  67)          122.6139         0.292740   
    531. A(Al 61,Al 60,H  67)          109.2987         0.279453   
    532. A(Al 61,Al 60,Al 62)           95.3311         0.221306   
    533. A(H  71,Al 61,H  83)           97.9095         0.347745   
    534. A(H  70,Al 61,H  83)          108.9655         0.364514   
    535. A(H  69,Al 61,H  83)          110.8901         0.364900   
    536. A(Al 63,Al 61,H  83)           14.9297         0.283607   
    537. A(Al 60,Al 61,H  83)           93.4837         0.268146   
    538. A(H  70,Al 61,H  71)          114.1187         0.363722   
    539. A(H  69,Al 61,H  71)          112.0601         0.364106   
    540. A(Al 63,Al 61,H  71)           84.5054         0.283047   
    541. A(H  69,Al 61,H  70)          112.0147         0.381935   
    542. A(Al 63,Al 61,H  70)          120.9489         0.295623   
    543. A(Al 60,Al 61,H  70)          117.2180         0.279207   
    544. A(Al 63,Al 61,H  69)          110.4075         0.295912   
    545. A(Al 60,Al 61,H  69)          112.6852         0.279473   
    546. A(Al 60,Al 61,Al 63)           79.9493         0.223351   
    547. A(H  77,Al 62,H  84)           85.9011         0.339424   
    548. A(H  74,Al 62,H  84)           87.3019         0.338655   
    549. A(H  73,Al 62,H  84)          144.1193         0.354504   
    550. A(H  72,Al 62,H  84)           78.0761         0.338584   
    551. A(Al 64,Al 62,H  84)           82.8647         0.380588   
    552. A(Al 63,Al 62,H  84)           19.3761         0.286205   
    553. A(Al 60,Al 62,H  84)           66.8621         0.275960   
    554. A(H  74,Al 62,H  77)           72.5010         0.342156   
    555. A(H  73,Al 62,H  77)           90.8370         0.358227   
    556. A(H  72,Al 62,H  77)          161.9691         0.342083   
    557. A(Al 64,Al 62,H  77)           36.1968         0.384676   
    558. A(Al 63,Al 62,H  77)           76.2129         0.288970   
    559. A(Al 60,Al 62,H  77)          147.7993         0.278582   
    560. A(H  73,Al 62,H  74)          125.6221         0.357400   
    561. A(H  72,Al 62,H  74)          114.4427         0.341306   
    562. A(Al 64,Al 62,H  74)           36.5066         0.383768   
    563. A(Al 63,Al 62,H  74)           68.5100         0.288356   
    564. A(Al 60,Al 62,H  74)          120.5222         0.277999   
    565. A(H  72,Al 62,H  73)           97.2802         0.357323   
    566. A(Al 64,Al 62,H  73)          114.1337         0.402481   
    567. A(Al 63,Al 62,H  73)          157.3641         0.301012   
    568. A(Al 60,Al 62,H  73)          101.1813         0.289998   
    569. A(Al 64,Al 62,H  72)          146.3090         0.383684   
    570. A(Al 63,Al 62,H  72)           90.6394         0.288299   
    571. A(Al 60,Al 62,H  72)           14.2753         0.277945   
    572. A(Al 63,Al 62,Al 64)           65.1039         0.321840   
    573. A(Al 60,Al 62,Al 64)          144.6570         0.309744   
    574. A(Al 60,Al 62,Al 63)           81.8640         0.238292   
    575. A(H  85,Al 63,H  86)          168.6965         0.359008   
    576. A(H  84,Al 63,H  86)           87.2114         0.342295   
    577. A(H  83,Al 63,H  86)          103.1229         0.343463   
    578. A(H  82,Al 63,H  86)           74.9966         0.342302   
    579. A(H  76,Al 63,H  86)           79.2919         0.342406   
    580. A(Al 65,Al 63,H  86)           22.2067         0.300092   
    581. A(Al 64,Al 63,H  86)           67.9012         0.286256   
    582. A(Al 62,Al 63,H  86)           86.6101         0.288611   
    583. A(H  84,Al 63,H  85)           96.6225         0.359297   
    584. A(H  83,Al 63,H  85)           87.5214         0.360543   
    585. A(H  82,Al 63,H  85)          100.2199         0.359303   
    586. A(Al 66,Al 63,H  85)          113.7569         0.293704   
    587. A(Al 65,Al 63,H  85)          146.4972         0.314260   
    588. A(Al 64,Al 63,H  85)          103.5776         0.299495   
    589. A(Al 62,Al 63,H  85)           93.4458         0.302009   
    590. A(Al 61,Al 63,H  85)           77.9412         0.294065   
    591. A(H  83,Al 63,H  84)           90.4186         0.343735   
    592. A(H  76,Al 63,H  84)           82.8304         0.342677   
    593. A(Al 66,Al 63,H  84)          146.0439         0.281034   
    594. A(Al 65,Al 63,H  84)           95.7785         0.300318   
    595. A(Al 64,Al 63,H  84)           68.4315         0.286466   
    596. A(Al 62,Al 63,H  84)           19.5662         0.288825   
    597. A(Al 61,Al 63,H  84)           80.4073         0.281372   
    598. A(H  82,Al 63,H  83)           96.9785         0.343741   
    599. A(H  76,Al 63,H  83)          172.7434         0.343847   
    600. A(H  82,Al 63,H  84)          161.8539         0.342572   
    601. A(Al 66,Al 63,H  83)          105.0892         0.281919   
    602. A(Al 65,Al 63,H  83)          123.3871         0.301292   
    603. A(Al 64,Al 63,H  83)          156.8810         0.287377   
    604. A(Al 62,Al 63,H  83)          109.6209         0.289746   
    605. A(Al 61,Al 63,H  83)           14.8536         0.282259   
    606. A(H  76,Al 63,H  82)           90.2525         0.342684   
    607. A(Al 66,Al 63,H  82)           15.9047         0.281039   
    608. A(H  76,Al 63,H  85)           90.6057         0.359415   
    609. A(Al 65,Al 63,H  82)           66.3291         0.300323   
    610. A(Al 64,Al 63,H  82)          100.8166         0.286471   
    611. A(Al 62,Al 63,H  82)          150.5770         0.288830   
    612. A(Al 61,Al 63,H  86)          113.2458         0.281166   
    613. A(Al 61,Al 63,H  82)          109.6426         0.281377   
    614. A(Al 66,Al 63,H  76)           82.0785         0.281118   
    615. A(Al 65,Al 63,H  76)           60.3102         0.300410   
    616. A(Al 66,Al 63,H  86)           60.1588         0.280829   
    617. A(Al 64,Al 63,H  76)           18.6287         0.286553   
    618. A(Al 62,Al 63,H  76)           63.4805         0.288912   
    619. A(Al 61,Al 63,H  76)          158.3898         0.281456   
    620. A(Al 65,Al 63,Al 66)           50.4322         0.249038   
    621. A(Al 64,Al 63,Al 66)           89.1239         0.238548   
    622. A(Al 62,Al 63,Al 66)          136.4582         0.240334   
    623. A(Al 61,Al 63,Al 66)          119.2484         0.234689   
    624. A(Al 64,Al 63,Al 65)           53.3860         0.253565   
    625. A(Al 62,Al 63,Al 65)           88.0401         0.255530   
    626. A(Al 61,Al 63,Al 65)          134.9315         0.249319   
    627. A(Al 62,Al 63,Al 64)           50.3369         0.244615   
    628. A(Al 61,Al 63,Al 62)           98.5946         0.240600   
    629. A(Al 61,Al 63,Al 64)          148.8064         0.238811   
    630. A(H  77,Al 64,H  78)          144.1361         0.357507   
    631. A(H  76,Al 64,H  78)          121.8393         0.355028   
    632. A(H  75,Al 64,H  78)           91.7734         0.359369   
    633. A(H  74,Al 64,H  78)          113.8437         0.355820   
    634. A(Al 65,Al 64,H  78)          114.1857         0.371702   
    635. A(Al 63,Al 64,H  78)          140.0656         0.298393   
    636. A(Al 62,Al 64,H  78)          141.2773         0.402307   
    637. A(H  76,Al 64,H  77)           93.7584         0.339526   
    638. A(H  75,Al 64,H  77)           86.2719         0.343614   
    639. A(H  74,Al 64,H  77)           72.2773         0.340271   
    640. A(Al 65,Al 64,H  77)           81.1075         0.355228   
    641. A(Al 63,Al 64,H  77)           75.7505         0.286191   
    642. A(Al 62,Al 64,H  77)           36.1333         0.384050   
    643. A(H  75,Al 64,H  76)           98.9980         0.341264   
    644. A(H  74,Al 64,H  76)           69.3738         0.337952   
    645. A(Al 65,Al 64,H  76)           68.1918         0.352771   
    646. A(Al 63,Al 64,H  76)           18.4766         0.284371   
    647. A(Al 62,Al 64,H  76)           77.1047         0.381326   
    648. A(H  74,Al 64,H  75)          154.3452         0.342014   
    649. A(Al 65,Al 64,H  75)           31.7785         0.357075   
    650. A(Al 63,Al 64,H  75)           93.5471         0.287559   
    651. A(Al 62,Al 64,H  75)          120.2107         0.386096   
    652. A(Al 65,Al 64,H  74)          127.4950         0.353555   
    653. A(Al 63,Al 64,H  74)           68.0533         0.284952   
    654. A(Al 62,Al 64,H  74)           36.3455         0.382196   
    655. A(Al 63,Al 64,Al 65)           61.8381         0.296616   
    656. A(Al 62,Al 64,Al 65)          104.1030         0.399648   
    657. A(Al 62,Al 64,Al 63)           64.5592         0.319092   
    658. A(H  86,Al 65,H  87)          109.0672         0.359062   
    659. A(H  79,Al 65,H  87)          109.2548         0.363758   
    660. A(H  75,Al 65,H  87)          106.3392         0.362992   
    661. A(Al 66,Al 65,H  87)          121.9754         0.406621   
    662. A(Al 64,Al 65,H  87)          128.9657         0.373794   
    663. A(Al 63,Al 65,H  87)          131.1842         0.314739   
    664. A(H  79,Al 65,H  86)          111.0512         0.345437   
    665. A(H  75,Al 65,H  86)          108.2140         0.344722   
    666. A(Al 66,Al 65,H  86)           75.3935         0.385443   
    667. A(Al 64,Al 65,H  86)           78.6632         0.354804   
    668. A(Al 63,Al 65,H  86)           22.1747         0.299687   
    669. A(H  75,Al 65,H  79)          112.7540         0.349168   
    670. A(Al 66,Al 65,H  79)           35.6767         0.390596   
    671. A(Al 64,Al 65,H  79)          114.4215         0.359425   
    672. A(Al 63,Al 65,H  79)          100.0348         0.303350   
    673. A(Al 66,Al 65,H  75)          127.7273         0.389756   
    674. A(Al 64,Al 65,H  75)           31.9305         0.358672   
    675. A(Al 63,Al 65,H  75)           96.6344         0.302752   
    676. A(Al 64,Al 65,Al 66)          108.9082         0.401613   
    677. A(Al 63,Al 65,Al 66)           66.9854         0.336789   
    678. A(Al 63,Al 65,Al 64)           64.7759         0.311180   
    679. A(H  81,Al 66,H  82)           99.7061         0.359778   
    680. A(H  80,Al 66,H  82)           92.7438         0.360090   
    681. A(H  79,Al 66,H  82)          110.9812         0.345667   
    682. A(Al 65,Al 66,H  82)           78.4862         0.386526   
    683. A(Al 63,Al 66,H  82)           15.9121         0.281161   
    684. A(H  80,Al 66,H  81)          154.4652         0.378109   
    685. A(H  79,Al 66,H  81)          100.8934         0.362728   
    686. A(Al 65,Al 66,H  81)           92.8331         0.406303   
    687. A(Al 63,Al 66,H  81)           99.1018         0.293934   
    688. A(H  79,Al 66,H  80)           95.2231         0.363042   
    689. A(Al 65,Al 66,H  80)          111.5548         0.406668   
    690. A(Al 63,Al 66,H  80)           98.8583         0.294169   
    691. A(Al 65,Al 66,H  79)           35.5952         0.389767   
    692. A(Al 63,Al 66,H  79)           95.6799         0.283254   
    693. A(Al 63,Al 66,Al 65)           62.5824         0.314177   
    694. A(H  53,H  68,Al 60)          100.4712         0.124328   
    695. A(C  47,H  70,H  53)           21.0473         0.093728   
    696. A(O  27,H  70,C  47)           25.8019         0.099358   
    697. A(C  47,H  70,Al 61)          102.4672         0.139043   
    698. A(O  27,H  70,H  53)           41.5129         0.094720   
    699. A(H  53,H  70,Al 61)           93.4379         0.116635   
    700. A(O  27,H  70,Al 61)           88.8124         0.149546   
    701. A(Al 60,H  71,Al 61)          170.7100         0.347092   
    702. A(O  27,H  71,H  53)           42.2765         0.095029   
    703. A(H  53,H  71,Al 61)           95.7207         0.117397   
    704. A(H  53,H  71,Al 60)           91.6403         0.117407   
    705. A(O  27,H  71,Al 61)           85.8205         0.143773   
    706. A(O  27,H  71,Al 60)           95.9055         0.143792   
    707. A(Al 60,H  72,Al 62)          151.3177         0.344420   
    708. A(O  25,H  73,C  37)           25.2808         0.097619   
    709. A(C  37,H  73,H  51)           21.1398         0.094951   
    710. A(C  37,H  73,Al 62)          115.9530         0.137655   
    711. A(O  25,H  73,H  51)           42.3607         0.095185   
    712. A(O  25,H  73,Al 62)           91.3794         0.139566   
    713. A(H  51,H  73,Al 62)          132.9195         0.123912   
    714. A(Al 62,H  74,Al 64)          107.1479         0.340032   
    715. A(Al 64,H  75,Al 65)          116.2911         0.346907   
    716. A(H  57,H  75,Al 65)           96.6178         0.120588   
    717. A(H  57,H  75,Al 64)          100.0856         0.120401   
    718. A(Al 63,H  76,Al 64)          142.8946         0.339985   
    719. A(O  24,H  77,H  57)           48.1301         0.099793   
    720. A(O  24,H  77,Al 64)          139.8949         0.157164   
    721. A(O  24,H  77,Al 62)          103.1100         0.157309   
    722. A(H  57,H  77,Al 64)          112.4287         0.129037   
    723. A(H  57,H  77,Al 62)          138.8848         0.129122   
    724. A(Al 62,H  77,Al 64)          107.6699         0.342397   
    725. A(O  24,H  77,C  46)           26.6686         0.102709   
    726. A(C  46,H  77,H  57)           21.5730         0.097052   
    727. A(C  46,H  77,Al 64)          125.9968         0.139855   
    728. A(C  46,H  77,Al 62)          125.4984         0.139964   
    729. A(Al 65,H  79,Al 66)          108.7281         0.349178   
    730. A(H  48,H  81,Al 66)          113.2230         0.127580   
    731. A(Al 63,H  82,Al 66)          148.1832         0.342740   
    732. A(H  48,H  82,Al 66)           92.7542         0.113898   
    733. A(H  48,H  82,Al 63)           81.6809         0.113882   
    734. A(H  48,H  83,Al 63)          100.2849         0.127975   
    735. A(H  48,H  83,Al 61)          107.5141         0.128247   
    736. A(Al 61,H  83,Al 63)          150.2167         0.346694   
    737. A(O  26,H  83,C  41)           25.4441         0.097906   
    738. A(C  41,H  83,H  48)           20.2087         0.096051   
    739. A(C  41,H  83,Al 63)          101.4063         0.135297   
    740. A(C  41,H  83,Al 61)          101.0731         0.135620   
    741. A(O  26,H  83,H  48)           43.4363         0.096497   
    742. A(O  26,H  83,Al 63)           86.7352         0.138228   
    743. A(O  26,H  83,Al 61)          106.1326         0.138571   
    744. A(Al 62,H  84,Al 63)          141.0577         0.339242   
    745. A(O  26,H  86,Al 65)          118.2862         0.164866   
    746. A(O  26,H  86,Al 63)          106.0938         0.165012   
    747. A(Al 63,H  86,Al 65)          135.6186         0.341540   
    748. A(O  24,H  86,C  41)           81.0878         0.097213   
    749. A(O  24,H  86,H  48)          102.5103         0.094315   
    750. A(O  24,H  86,O  26)           57.2532         0.102083   
    751. A(O  24,H  86,Al 65)           87.0376         0.132466   
    752. A(O  24,H  86,Al 63)          119.3807         0.132549   
    753. A(C  41,H  86,H  48)           21.5587         0.094824   
    754. A(O  26,H  86,C  41)           25.2251         0.103335   
    755. A(C  41,H  86,Al 65)          116.8382         0.136627   
    756. A(C  41,H  86,Al 63)          102.9065         0.136718   
    757. A(O  26,H  86,H  48)           45.6808         0.098277   
    758. A(H  48,H  86,Al 65)          120.0992         0.119820   
    759. A(H  48,H  86,Al 63)           90.2059         0.119880   
    760. A(O  34,H  87,C  40)           28.2156         0.103437   
    761. A(C  40,H  87,H  56)           23.6601         0.097399   
    762. A(C  40,H  87,Al 65)          141.9899         0.153480   
    763. A(O  34,H  87,H  56)           45.3125         0.097439   
    764. A(O  34,H  87,Al 65)          163.5605         0.153785   
    765. A(H  56,H  87,Al 65)          133.1976         0.126692   
    766. A(O  24,H  87,H  57)           39.0017         0.093349   
    767. A(O  24,H  87,C  46)           25.2323         0.098469   
    768. A(O  24,H  87,C  40)           95.7872         0.099236   
    769. A(O  24,H  87,O  34)           82.1756         0.099285   
    770. A(O  24,H  87,H  56)          119.3621         0.094984   
    771. A(O  24,H  87,Al 65)           87.9159         0.134935   
    772. A(C  46,H  87,H  57)           21.2736         0.094648   
    773. A(C  40,H  87,H  57)          116.6089         0.095105   
    774. A(O  34,H  87,H  57)           90.9946         0.095134   
    775. A(H  56,H  87,H  57)          136.1326         0.092569   
    776. A(H  57,H  87,Al 65)           89.4866         0.116398   
    777. A(C  40,H  87,C  46)           97.2466         0.102293   
    778. A(O  34,H  87,C  46)           74.4568         0.102355   
    779. A(C  46,H  87,H  56)          119.1986         0.096770   
    780. A(C  46,H  87,Al 65)          101.5604         0.148651   
    781. D(Zr  5,Zr  2,Zr  1,O   7)    104.8995         0.010000   
    782. D(Zr  5,Zr  2,Zr  1,Zr  4)    103.1576         0.010000   
    783. D(O   7,Zr  2,Zr  1,Zr  4)     -1.7419         0.010000   
    784. D(Zr  4,Zr  3,Zr  0,Zr  5)   -107.2068         0.010000   
    785. D(O   6,Zr  3,Zr  0,Zr  5)      1.0394         0.010000   
    786. D(Zr  4,Zr  3,Zr  0,O   6)   -108.2461         0.010000   
    787. D(Zr  3,Zr  4,Zr  1,Zr  2)   -107.3383         0.010000   
    788. D(O   7,Zr  4,Zr  1,Zr  2)      1.7633         0.010000   
    789. D(Zr  3,Zr  4,Zr  1,O   7)   -109.1016         0.010000   
    790. D(O   7,Zr  4,Zr  3,Zr  0)     69.2001         0.010000   
    791. D(Zr  1,Zr  4,Zr  3,Zr  0)    103.7732         0.010000   
    792. D(Zr  1,Zr  4,Zr  3,O   6)     68.8223         0.010000   
    793. D(O   6,Zr  5,Zr  0,Zr  3)     -1.0269         0.010000   
    794. D(Zr  2,Zr  5,Zr  0,O   6)    103.9715         0.010000   
    795. D(Zr  2,Zr  5,Zr  0,Zr  3)    102.9445         0.010000   
    796. D(Zr  0,Zr  5,Zr  2,O   7)    -63.1713         0.010000   
    797. D(Zr  0,Zr  5,Zr  2,Zr  1)    -99.6462         0.010000   
    798. D(O   6,Zr  5,Zr  2,Zr  1)    -62.8575         0.010000   
    799. D(Zr  5,O   6,Zr  3,Zr  0)   -176.9968         0.010000   
    800. D(Zr  0,O   6,Zr  5,Zr  2)    -68.3824         0.010000   
    801. D(Zr  0,O   6,Zr  5,O   8)   -104.7670         0.010000   
    802. D(Zr  0,O   6,Zr  3,Zr  4)     62.9270         0.010000   
    803. D(Zr  3,O   6,Zr  0,O   9)    -29.4160         0.010000   
    804. D(Zr  5,O   6,Zr  0,Zr  3)    178.3401         0.010000   
    805. D(Zr  3,O   6,Zr  0,Zr  5)   -178.3401         0.010000   
    806. D(Zr  3,O   6,Zr  5,Zr  0)    177.0211         0.010000   
    807. D(Zr  0,O   6,Zr  3,O   9)     29.9254         0.010000   
    808. D(Zr  2,O   7,Zr  1,O   8)     32.6907         0.010000   
    809. D(Zr  2,O   7,Zr  1,Zr  4)    177.1808         0.010000   
    810. D(Zr  1,O   7,Zr  2,O   8)    -33.4077         0.010000   
    811. D(Zr  1,O   7,Zr  2,Zr  5)    -67.5912         0.010000   
    812. D(Zr  4,O   7,Zr  1,Zr  2)   -177.1808         0.010000   
    813. D(Zr  1,O   7,Zr  4,O   9)     97.6856         0.010000   
    814. D(Zr  4,O   7,Zr  2,Zr  1)    175.0199         0.010000   
    815. D(Zr  2,O   7,Zr  4,Zr  1)   -174.9770         0.010000   
    816. D(Zr  1,O   7,Zr  4,Zr  3)     62.1616         0.010000   
    817. D(Zr  2,O   8,Zr  5,Zr  0)     53.4781         0.010000   
    818. D(Zr  5,O   8,Zr  2,Zr  1)   -144.0574         0.010000   
    819. D(Zr  1,O   8,Zr  5,Zr  2)   -127.2639         0.010000   
    820. D(Zr  1,O   8,Zr  2,Zr  5)    144.0574         0.010000   
    821. D(Zr  1,O   8,Zr  2,O   7)     32.0014         0.010000   
    822. D(Zr  1,O   8,Zr  5,Zr  0)    -73.7859         0.010000   
    823. D(Zr  2,O   8,Zr  1,Zr  4)    -51.9371         0.010000   
    824. D(Zr  5,O   8,Zr  1,Zr  2)    128.6255         0.010000   
    825. D(Zr  2,O   8,Zr  1,O   7)    -31.7550         0.010000   
    826. D(Zr  3,O   9,Zr  4,Zr  1)    -47.9436         0.010000   
    827. D(Zr  0,O   9,Zr  4,Zr  3)    131.6209         0.010000   
    828. D(Zr  0,O   9,Zr  4,Zr  1)     83.6772         0.010000   
    829. D(Zr  4,O   9,Zr  3,Zr  0)    142.4835         0.010000   
    830. D(Zr  0,O   9,Zr  3,O   6)    -29.6818         0.010000   
    831. D(Zr  4,O   9,Zr  0,Zr  3)   -132.2290         0.010000   
    832. D(Zr  0,O   9,Zr  3,Zr  4)   -142.4835         0.010000   
    833. D(Zr  3,O   9,Zr  0,O   6)     29.6680         0.010000   
    834. D(Zr  3,O   9,Zr  0,Zr  5)     47.8304         0.010000   
    835. D(Zr  4,O  10,Zr  1,Zr  2)     47.5869         0.010000   
    836. D(Zr  1,O  10,Zr  4,Zr  3)   -142.4109         0.010000   
    837. D(Zr  4,O  10,Zr  3,Zr  0)    -48.0590         0.010000   
    838. D(Zr  1,O  10,Zr  3,Zr  0)     83.6683         0.010000   
    839. D(Zr  1,O  10,Zr  4,O   7)    -29.1133         0.010000   
    840. D(Zr  1,O  10,Zr  3,Zr  4)    131.7273         0.010000   
    841. D(Zr  3,O  10,Zr  1,Zr  4)   -132.2491         0.010000   
    842. D(Zr  3,O  10,Zr  4,Zr  1)    142.4109         0.010000   
    843. D(Zr  3,O  10,Zr  1,Zr  2)    -84.6622         0.010000   
    844. D(Zr  0,O  11,Zr  2,Zr  1)    -73.7295         0.010000   
    845. D(Zr  0,O  11,Zr  5,O   6)     32.5841         0.010000   
    846. D(Zr  2,O  11,Zr  5,Zr  0)   -144.1282         0.010000   
    847. D(Zr  0,O  11,Zr  5,Zr  2)    144.1282         0.010000   
    848. D(Zr  0,O  11,Zr  2,Zr  5)   -127.1185         0.010000   
    849. D(Zr  2,O  11,Zr  0,Zr  5)    128.5629         0.010000   
    850. D(Zr  5,O  11,Zr  0,Zr  3)    -52.2728         0.010000   
    851. D(Zr  5,O  11,Zr  2,Zr  1)     53.3890         0.010000   
    852. D(Zr  2,O  11,Zr  0,Zr  3)     76.2901         0.010000   
    853. D(C  36,O  12,Zr  0,Zr  5)      3.9514         0.010000   
    854. D(C  36,O  12,Zr  0,Zr  3)     55.1694         0.010000   
    855. D(C  37,O  13,Zr  0,Zr  3)    -34.6077         0.010000   
    856. D(C  37,O  13,Zr  0,Zr  5)   -100.2973         0.010000   
    857. D(C  38,O  14,Zr  0,Zr  5)     35.3786         0.010000   
    858. D(C  38,O  14,Zr  0,Zr  3)    -48.7678         0.010000   
    859. D(C  39,O  15,Zr  0,Zr  5)    -23.5394         0.010000   
    860. D(C  39,O  15,Zr  0,Zr  3)    -74.5992         0.010000   
    861. D(C  40,O  16,Zr  1,Zr  2)     34.1987         0.010000   
    862. D(C  40,O  16,Zr  1,Zr  4)    -49.7282         0.010000   
    863. D(C  41,O  17,Zr  1,Zr  4)    -75.7892         0.010000   
    864. D(C  41,O  17,Zr  1,Zr  2)    -24.8697         0.010000   
    865. D(C  42,O  18,Zr  1,Zr  2)      2.1325         0.010000   
    866. D(C  42,O  18,Zr  1,Zr  4)     53.1936         0.010000   
    867. D(C  43,O  19,Zr  1,Zr  4)    -34.3390         0.010000   
    868. D(C  43,O  19,Zr  1,Zr  2)    -99.8092         0.010000   
    869. D(C  44,O  20,Zr  2,Zr  5)     31.8431         0.010000   
    870. D(C  44,O  20,Zr  2,Zr  1)    -15.5515         0.010000   
    871. D(C  38,O  21,Zr  2,Zr  1)     57.3375         0.010000   
    872. D(C  38,O  21,Zr  2,Zr  5)    -28.0773         0.010000   
    873. D(C  42,O  22,Zr  2,Zr  5)     68.7312         0.010000   
    874. D(C  42,O  22,Zr  2,Zr  1)      2.8164         0.010000   
    875. D(C  45,O  23,Zr  2,Zr  5)     29.0733         0.010000   
    876. D(C  45,O  23,Zr  2,Zr  1)     64.7197         0.010000   
    877. D(H  77,O  24,Zr  3,Zr  0)    138.3072         0.010000   
    878. D(C  46,O  24,Zr  3,Zr  4)      1.9153         0.010000   
    879. D(C  46,O  24,Zr  3,Zr  0)    -33.8249         0.010000   
    880. D(H  73,O  25,Zr  3,Zr  0)   -125.5978         0.010000   
    881. D(C  37,O  25,Zr  3,Zr  4)    -84.7696         0.010000   
    882. D(C  37,O  25,Zr  3,Zr  0)    -23.8644         0.010000   
    883. D(H  86,O  26,Zr  3,Zr  0)    109.1153         0.010000   
    884. D(C  41,O  26,Zr  3,Zr  4)      1.1983         0.010000   
    885. D(C  41,O  26,Zr  3,Zr  0)    -75.4480         0.010000   
    886. D(H  70,O  27,Zr  3,Zr  0)    142.0033         0.010000   
    887. D(C  47,O  27,Zr  3,Zr  4)    -28.4569         0.010000   
    888. D(C  47,O  27,Zr  3,Zr  0)     18.8010         0.010000   
    889. D(C  47,O  28,Zr  4,Zr  3)    -28.4589         0.010000   
    890. D(C  47,O  28,Zr  4,Zr  1)     17.7841         0.010000   
    891. D(C  39,O  29,Zr  4,Zr  3)     -3.6054         0.010000   
    892. D(C  39,O  29,Zr  4,Zr  1)    -79.8681         0.010000   
    893. D(C  43,O  30,Zr  4,Zr  3)    -85.8171         0.010000   
    894. D(C  43,O  30,Zr  4,Zr  1)    -24.9582         0.010000   
    895. D(C  45,O  31,Zr  4,Zr  3)     -3.1917         0.010000   
    896. D(C  45,O  31,Zr  4,Zr  1)    -39.6105         0.010000   
    897. D(C  46,O  32,Zr  5,Zr  0)     62.8804         0.010000   
    898. D(C  46,O  32,Zr  5,Zr  2)     30.6021         0.010000   
    899. D(C  36,O  33,Zr  5,Zr  2)     70.7770         0.010000   
    900. D(C  36,O  33,Zr  5,Zr  0)      4.2824         0.010000   
    901. D(H  87,O  34,Zr  5,Zr  0)    -49.8489         0.010000   
    902. D(C  40,O  34,Zr  5,Zr  2)    -25.7433         0.010000   
    903. D(C  40,O  34,Zr  5,Zr  0)     60.4659         0.010000   
    904. D(C  44,O  35,Zr  5,Zr  2)     31.9853         0.010000   
    905. D(C  44,O  35,Zr  5,Zr  0)    -14.9615         0.010000   
    906. D(H  58,C  36,O  12,Zr  0)    177.4002         0.046876   
    907. D(O  33,C  36,O  12,Zr  0)     -2.5421         0.046876   
    908. D(H  58,C  36,O  33,Zr  5)    176.6225         0.046960   
    909. D(O  12,C  36,O  33,Zr  5)     -3.4352         0.046960   
    910. D(H  51,C  37,O  25,Zr  3)   -168.3142         0.055814   
    911. D(O  13,C  37,O  25,H  73)    132.2959         0.055814   
    912. D(O  13,C  37,O  25,Zr  3)     10.8734         0.055814   
    913. D(H  51,C  37,O  13,Zr  0)   -148.5755         0.050648   
    914. D(O  25,C  37,O  13,Zr  0)     32.2372         0.050648   
    915. D(H  50,C  38,O  21,Zr  2)    173.8265         0.048597   
[...]
freq.     115.02  E(vib)   ...       0.44 
freq.     115.87  E(vib)   ...       0.44 
freq.     121.63  E(vib)   ...       0.44 
freq.     128.32  E(vib)   ...       0.43 
freq.     131.44  E(vib)   ...       0.42 
freq.     139.47  E(vib)   ...       0.42 
freq.     142.54  E(vib)   ...       0.41 
freq.     146.49  E(vib)   ...       0.41 
freq.     149.76  E(vib)   ...       0.40 
freq.     153.05  E(vib)   ...       0.40 
freq.     153.82  E(vib)   ...       0.40 
freq.     154.34  E(vib)   ...       0.40 
freq.     157.30  E(vib)   ...       0.40 
freq.     159.59  E(vib)   ...       0.39 
freq.     160.67  E(vib)   ...       0.39 
freq.     163.77  E(vib)   ...       0.39 
freq.     165.13  E(vib)   ...       0.39 
freq.     167.92  E(vib)   ...       0.38 
freq.     170.61  E(vib)   ...       0.38 
freq.     171.54  E(vib)   ...       0.38 
freq.     172.67  E(vib)   ...       0.38 
freq.     177.87  E(vib)   ...       0.37 
freq.     179.72  E(vib)   ...       0.37 
freq.     184.05  E(vib)   ...       0.37 
freq.     186.78  E(vib)   ...       0.37 
freq.     190.24  E(vib)   ...       0.36 
freq.     195.40  E(vib)   ...       0.36 
freq.     196.53  E(vib)   ...       0.36 
freq.     200.38  E(vib)   ...       0.35 
freq.     200.52  E(vib)   ...       0.35 
freq.     202.42  E(vib)   ...       0.35 
freq.     209.62  E(vib)   ...       0.34 
freq.     213.24  E(vib)   ...       0.34 
freq.     217.62  E(vib)   ...       0.33 
freq.     227.22  E(vib)   ...       0.33 
freq.     232.04  E(vib)   ...       0.32 
freq.     235.85  E(vib)   ...       0.32 
freq.     236.71  E(vib)   ...       0.32 
freq.     239.45  E(vib)   ...       0.31 
freq.     243.39  E(vib)   ...       0.31 
freq.     246.93  E(vib)   ...       0.31 
freq.     254.51  E(vib)   ...       0.30 
freq.     256.66  E(vib)   ...       0.30 
freq.     259.47  E(vib)   ...       0.30 
freq.     261.09  E(vib)   ...       0.30 
freq.     264.59  E(vib)   ...       0.29 
freq.     265.53  E(vib)   ...       0.29 
freq.     266.63  E(vib)   ...       0.29 
freq.     267.55  E(vib)   ...       0.29 
freq.     271.50  E(vib)   ...       0.29 
freq.     272.00  E(vib)   ...       0.29 
freq.     272.87  E(vib)   ...       0.29 
freq.     274.26  E(vib)   ...       0.28 
freq.     276.50  E(vib)   ...       0.28 
freq.     277.22  E(vib)   ...       0.28 
freq.     282.11  E(vib)   ...       0.28 
freq.     283.34  E(vib)   ...       0.28 
freq.     287.77  E(vib)   ...       0.27 
freq.     289.20  E(vib)   ...       0.27 
freq.     291.79  E(vib)   ...       0.27 
freq.     296.02  E(vib)   ...       0.27 
freq.     296.76  E(vib)   ...       0.27 
freq.     299.07  E(vib)   ...       0.26 
freq.     303.24  E(vib)   ...       0.26 
freq.     305.98  E(vib)   ...       0.26 
freq.     307.87  E(vib)   ...       0.26 
freq.     310.52  E(vib)   ...       0.26 
freq.     311.94  E(vib)   ...       0.25 
freq.     314.25  E(vib)   ...       0.25 
freq.     316.10  E(vib)   ...       0.25 
freq.     317.29  E(vib)   ...       0.25 
freq.     321.88  E(vib)   ...       0.25 
freq.     323.57  E(vib)   ...       0.25 
freq.     325.76  E(vib)   ...       0.24 
freq.     329.91  E(vib)   ...       0.24 
freq.     333.37  E(vib)   ...       0.24 
freq.     342.82  E(vib)   ...       0.23 
freq.     345.62  E(vib)   ...       0.23 
freq.     351.64  E(vib)   ...       0.23 
freq.     354.84  E(vib)   ...       0.22 
freq.     360.19  E(vib)   ...       0.22 
freq.     370.21  E(vib)   ...       0.21 
freq.     372.62  E(vib)   ...       0.21 
freq.     383.85  E(vib)   ...       0.20 
freq.     393.74  E(vib)   ...       0.20 
freq.     397.06  E(vib)   ...       0.20 
freq.     401.85  E(vib)   ...       0.19 
freq.     402.92  E(vib)   ...       0.19 
freq.     408.10  E(vib)   ...       0.19 
freq.     411.17  E(vib)   ...       0.19 
freq.     416.35  E(vib)   ...       0.18 
freq.     419.18  E(vib)   ...       0.18 
freq.     420.45  E(vib)   ...       0.18 
freq.     426.50  E(vib)   ...       0.18 
freq.     442.87  E(vib)   ...       0.17 
freq.     447.58  E(vib)   ...       0.17 
freq.     451.90  E(vib)   ...       0.16 
freq.     469.53  E(vib)   ...       0.16 
freq.     473.57  E(vib)   ...       0.15 
freq.     477.64  E(vib)   ...       0.15 
freq.     488.05  E(vib)   ...       0.15 
freq.     498.71  E(vib)   ...       0.14 
freq.     506.75  E(vib)   ...       0.14 
freq.     512.60  E(vib)   ...       0.13 
freq.     525.39  E(vib)   ...       0.13 
freq.     537.93  E(vib)   ...       0.12 
freq.     538.10  E(vib)   ...       0.12 
freq.     560.71  E(vib)   ...       0.11 
freq.     602.45  E(vib)   ...       0.10 
freq.     610.40  E(vib)   ...       0.10 
freq.     631.14  E(vib)   ...       0.09 
freq.     660.78  E(vib)   ...       0.08 
freq.     666.42  E(vib)   ...       0.08 
freq.     670.71  E(vib)   ...       0.08 
freq.     673.03  E(vib)   ...       0.08 
freq.     685.86  E(vib)   ...       0.07 
freq.     686.08  E(vib)   ...       0.07 
freq.     694.94  E(vib)   ...       0.07 
freq.     697.88  E(vib)   ...       0.07 
freq.     711.73  E(vib)   ...       0.07 
freq.     715.12  E(vib)   ...       0.07 
freq.     718.26  E(vib)   ...       0.07 
freq.     723.60  E(vib)   ...       0.06 
freq.     731.80  E(vib)   ...       0.06 
freq.     732.91  E(vib)   ...       0.06 
freq.     736.55  E(vib)   ...       0.06 
freq.     736.95  E(vib)   ...       0.06 
freq.     737.62  E(vib)   ...       0.06 
freq.     738.36  E(vib)   ...       0.06 
freq.     738.89  E(vib)   ...       0.06 
freq.     739.39  E(vib)   ...       0.06 
freq.     739.62  E(vib)   ...       0.06 
freq.     740.07  E(vib)   ...       0.06 
freq.     741.19  E(vib)   ...       0.06 
freq.     742.67  E(vib)   ...       0.06 
freq.     744.88  E(vib)   ...       0.06 
freq.     745.22  E(vib)   ...       0.06 
freq.     764.48  E(vib)   ...       0.06 
freq.     771.32  E(vib)   ...       0.05 
freq.     819.50  E(vib)   ...       0.05 
freq.     873.42  E(vib)   ...       0.04 
freq.     913.64  E(vib)   ...       0.03 
freq.     942.64  E(vib)   ...       0.03 
freq.     967.46  E(vib)   ...       0.03 
freq.     985.63  E(vib)   ...       0.02 
freq.     991.27  E(vib)   ...       0.02 
freq.     997.37  E(vib)   ...       0.02 
freq.     998.97  E(vib)   ...       0.02 
freq.    1000.80  E(vib)   ...       0.02 
freq.    1001.66  E(vib)   ...       0.02 
freq.    1002.72  E(vib)   ...       0.02 
freq.    1004.01  E(vib)   ...       0.02 
freq.    1004.90  E(vib)   ...       0.02 
freq.    1005.04  E(vib)   ...       0.02 
freq.    1006.58  E(vib)   ...       0.02 
freq.    1007.12  E(vib)   ...       0.02 
freq.    1008.05  E(vib)   ...       0.02 
freq.    1009.24  E(vib)   ...       0.02 
freq.    1021.48  E(vib)   ...       0.02 
freq.    1062.42  E(vib)   ...       0.02 
freq.    1110.01  E(vib)   ...       0.02 
freq.    1120.22  E(vib)   ...       0.01 
freq.    1330.98  E(vib)   ...       0.01 
freq.    1342.18  E(vib)   ...       0.01 
freq.    1344.80  E(vib)   ...       0.01 
freq.    1348.06  E(vib)   ...       0.01 
freq.    1350.64  E(vib)   ...       0.01 
freq.    1351.69  E(vib)   ...       0.01 
freq.    1353.11  E(vib)   ...       0.01 
freq.    1353.78  E(vib)   ...       0.01 
freq.    1353.99  E(vib)   ...       0.01 
freq.    1354.89  E(vib)   ...       0.01 
freq.    1356.17  E(vib)   ...       0.01 
freq.    1356.92  E(vib)   ...       0.01 
freq.    1360.02  E(vib)   ...       0.01 
freq.    1360.83  E(vib)   ...       0.01 
freq.    1361.98  E(vib)   ...       0.01 
freq.    1364.18  E(vib)   ...       0.01 
freq.    1366.61  E(vib)   ...       0.01 
freq.    1366.74  E(vib)   ...       0.01 
freq.    1367.88  E(vib)   ...       0.01 
freq.    1369.75  E(vib)   ...       0.01 
freq.    1370.25  E(vib)   ...       0.01 
freq.    1373.01  E(vib)   ...       0.01 
freq.    1375.54  E(vib)   ...       0.01 
freq.    1382.44  E(vib)   ...       0.01 
freq.    1538.67  E(vib)   ...       0.00 
freq.    1542.52  E(vib)   ...       0.00 
freq.    1550.57  E(vib)   ...       0.00 
freq.    1556.75  E(vib)   ...       0.00 
freq.    1562.61  E(vib)   ...       0.00 
freq.    1569.23  E(vib)   ...       0.00 
freq.    1574.77  E(vib)   ...       0.00 
freq.    1578.93  E(vib)   ...       0.00 
freq.    1593.70  E(vib)   ...       0.00 
freq.    1609.51  E(vib)   ...       0.00 
freq.    1622.53  E(vib)   ...       0.00 
freq.    1628.76  E(vib)   ...       0.00 
freq.    1632.06  E(vib)   ...       0.00 
freq.    1634.58  E(vib)   ...       0.00 
freq.    1637.34  E(vib)   ...       0.00 
freq.    1639.82  E(vib)   ...       0.00 
freq.    1683.03  E(vib)   ...       0.00 
freq.    1700.14  E(vib)   ...       0.00 
freq.    1712.53  E(vib)   ...       0.00 
freq.    1761.55  E(vib)   ...       0.00 
freq.    1809.40  E(vib)   ...       0.00 
freq.    1837.33  E(vib)   ...       0.00 
freq.    1843.42  E(vib)   ...       0.00 
freq.    1859.89  E(vib)   ...       0.00 
freq.    1868.67  E(vib)   ...       0.00 
freq.    1876.35  E(vib)   ...       0.00 
freq.    1881.37  E(vib)   ...       0.00 
freq.    1884.89  E(vib)   ...       0.00 
freq.    1893.74  E(vib)   ...       0.00 
freq.    1907.46  E(vib)   ...       0.00 
freq.    1910.47  E(vib)   ...       0.00 
freq.    1925.93  E(vib)   ...       0.00 
freq.    1928.57  E(vib)   ...       0.00 
freq.    2841.97  E(vib)   ...       0.00 
freq.    2867.04  E(vib)   ...       0.00 
freq.    2879.03  E(vib)   ...       0.00 
freq.    2891.05  E(vib)   ...       0.00 
freq.    2893.02  E(vib)   ...       0.00 
freq.    2899.68  E(vib)   ...       0.00 
freq.    2904.47  E(vib)   ...       0.00 
freq.    2906.46  E(vib)   ...       0.00 
freq.    2910.02  E(vib)   ...       0.00 
freq.    2912.23  E(vib)   ...       0.00 
freq.    2914.77  E(vib)   ...       0.00 
freq.    2920.07  E(vib)   ...       0.00 

------------
INNER ENERGY
------------

The inner energy is: U= E(el) + E(ZPE) + E(vib) + E(rot) + E(trans)
    E(el)   - is the total energy from the electronic structure calculation
              = E(kin-el) + E(nuc-el) + E(el-el) + E(nuc-nuc)
    E(ZPE)  - the the zero temperature vibrational energy from the frequency calculation
    E(vib)  - the the finite temperature correction to E(ZPE) due to population
              of excited vibrational states
    E(rot)  - is the rotational thermal energy
    E(trans)- is the translational thermal energy

Summary of contributions to the inner energy U:
Electronic energy                ...  -4708.47454358 Eh
Zero point energy                ...      0.46082133 Eh     289.17 kcal/mol
Thermal vibrational correction   ...      0.07382765 Eh      46.33 kcal/mol
Thermal rotational correction    ...      0.00141627 Eh       0.89 kcal/mol
Thermal translational correction ...      0.00141627 Eh       0.89 kcal/mol
-----------------------------------------------------------------------
Total thermal energy                  -4707.93706205 Eh


Summary of corrections to the electronic energy:
(perhaps to be used in another calculation)
Total thermal correction                  0.07666020 Eh      48.10 kcal/mol
Non-thermal (ZPE) correction              0.46082133 Eh     289.17 kcal/mol
-----------------------------------------------------------------------
Total correction                          0.53748153 Eh     337.27 kcal/mol


--------
ENTHALPY
--------

The enthalpy is H = U + kB*T
                kB is Boltzmann's constant
Total thermal energy              ...  -4707.93706205 Eh 
Thermal Enthalpy correction       ...      0.00094421 Eh       0.59 kcal/mol
-----------------------------------------------------------------------
Total Enthalpy                    ...  -4707.93611784 Eh


Note: Only C1 symmetry has been detected, increase convergence thresholds 
      if your molecule has a higher symmetry. Symmetry factor of 1.0 is   
      used for the rotational entropy correction. 
 

Note: Rotational entropy computed according to Herzberg 
Infrared and Raman Spectra, Chapter V,1, Van Nostrand Reinhold, 1945 
Point Group:  C1, Symmetry Number:   1  
Rotational constants in cm-1:     0.001510     0.000902     0.000890 

Vibrational entropy computed according to the QRRHO of S. Grimme
Chem.Eur.J. 2012 18 9955 using a reference frequency of 100.0 cm-1


-------
ENTROPY
-------

The entropy contributions are T*S = T*(S(el)+S(vib)+S(rot)+S(trans))
     S(el)   - electronic entropy
     S(vib)  - vibrational entropy
     S(rot)  - rotational entropy
     S(trans)- translational entropy
The entropies will be listed as multiplied by the temperature to get
units of energy

Electronic entropy                ...      0.00000000 Eh      0.00 kcal/mol
Vibrational entropy               ...      0.13315466 Eh     83.56 kcal/mol
Rotational entropy                ...      0.01920300 Eh     12.05 kcal/mol
Translational entropy             ...      0.02260233 Eh     14.18 kcal/mol
-----------------------------------------------------------------------
Final entropy term                ...      0.17495999 Eh    109.79 kcal/mol

In case the symmetry of your molecule has not been determined correctly
or in case you have a reason to use a different symmetry number we print 
out the resulting rotational entropy values for sn=1,12:

 non-linear molecules -----------------------------------
|  sn= 1 | S(rot)=       0.01920300 Eh     12.05 kcal/mol|
|  sn= 2 | S(rot)=       0.01854854 Eh     11.64 kcal/mol|
|  sn= 3 | S(rot)=       0.01816571 Eh     11.40 kcal/mol|
|  sn= 4 | S(rot)=       0.01789409 Eh     11.23 kcal/mol|
|  sn= 5 | S(rot)=       0.01768340 Eh     11.10 kcal/mol|
|  sn= 6 | S(rot)=       0.01751125 Eh     10.99 kcal/mol|
|  sn= 7 | S(rot)=       0.01736571 Eh     10.90 kcal/mol|
|  sn= 8 | S(rot)=       0.01723963 Eh     10.82 kcal/mol|
|  sn= 9 | S(rot)=       0.01712842 Eh     10.75 kcal/mol|
|  sn=10 | S(rot)=       0.01702894 Eh     10.69 kcal/mol|
|  sn=11 | S(rot)=       0.01693895 Eh     10.63 kcal/mol|
|  sn=12 | S(rot)=       0.01685680 Eh     10.58 kcal/mol|
 linear molecules ---------------------------------------
|  Dinfh | S(rot)=       0.01195806 Eh      7.50 kcal/mol|
|  Cinfv | S(rot)=       0.01261251 Eh      7.91 kcal/mol|
 --------------------------------------------------------


-------------------
GIBBS FREE ENERGY
-------------------

The Gibbs free energy is G = H - T*S

Total enthalpy                    ...  -4707.93611784 Eh 
Total entropy correction          ...     -0.17495999 Eh   -109.79 kcal/mol
-----------------------------------------------------------------------
Final Gibbs free energy         ...  -4708.11107783 Eh

For completeness - the Gibbs free energy minus the electronic energy
G-E(el)                           ...      0.36346574 Eh    228.08 kcal/mol


Maximum memory used throughout the entire PROP-calculation: 173.0 MB

--------------------------------
SUGGESTED CITATIONS FOR THIS RUN
--------------------------------

Below you find a list of papers that are relevant to this ORCA run
We neither can nor want to force you to cite these papers, but we appreciate if you do
You receive ORCA, which is the product of decades of hard work by many enthusiastic individuals, for free
The only thing we kindly ask in return is that you cite our papers,
We deeply appreciate it, if you show your appreciation for ORCA by not just citing the generic ORCA reference.

Please note that relegating all ORCA citations to the supporting information does *not* help us.
SI sections are not indexed - citations you put there will not count into any citation statistics
But we need these citations in order to attract the funding resources that allow us to do what we are doing

Therefore, if you are a happy ORCA user, please consider citing a few of the papers listed below in the main body of your paper

In addition to the list printed below, the program has created the file run.bibtex that contains the list in bibtex format
You can import this file easily into all common literature databanks and citation aid programs


List of essential papers. We consider these as the minimum necessary citations

  1. Neese, F.
     Software update: the ORCA program system, version 6.0
     WIRES Comput. Molec. Sci. 2025 15(1), e70019
     doi.org/10.1002/wcms.7019

List of papers to cite with high priority. The work reported in these papers was absolutely
necessary for this run to complete.
Our perspective: the developers of density functionals and basis sets usually get cited in chemistry papers
Good! But without the algorithms to do something with them, the functionals or basis sets would not do anything.
Hence, in our opinion, the algorithm design and method developments papers are equally worthy of getting cited

  1. Neese, F.
     An improvement of the resolution of the identity approximation for the formation of the Coulomb matrix
     J. Comp. Chem. 2003 24(14), 1740-1747
     doi.org/10.1002/jcc.10318
  2. Grimme, S.; Antony, J.; Ehrlich, S.; Krieg, H.
     A consistent and accurate ab initio parametrization of density functional dispersion correction (DFT-D) for the 94 elements H-Pu
     J. Chem. Phys. 2010 132 , 154104
     doi.org/10.1063/1.3382344
  3. Grimme, S.; Ehrlich, S.; Goerigk, L.
     Effect of the damping function in dispersion corrected density functional theory
     J. Comput. Chem. 2011 32(7), 1456-1465
     doi.org/10.1002/jcc.21759
  4. Bykov, D.; Petrenko, T.; Izsak, R.; Kossmann, S.; Becker, U.; Valeev, E.; Neese, F.
     Efficient implementation of the analytic second derivatives of Hartree-Fock and hybrid DFT energies: a detailed analysis of different approximations
     Molec. Phys. 2015 113 , 1961-1977
     doi.org/10.1080/00268976.2015.1025114
  5. Helmich-Paris, B.
     A trust-region augmented Hessian implementation for restricted and unrestricted Hartree–Fock and Kohn–Sham methods
     J. Chem. Phys. 2021 154 , 164104
     doi.org/10.1063/5.0040798
  6. Neese, F.
     The SHARK Integral Generation and Digestion System
     J. Comp. Chem. 2022 44(3), 381
     doi.org/10.1002/jcc.26942

List of suggested additional citations. These are papers that are important in the 'surrounding' of 
of this run, or papers that preceded the highly important papers. If you like your results we are grateful for a citation.

  1. Neese, F.
     The ORCA program system
     WIRES Comput. Molec. Sci. 2012 2(1), 73-78
     doi.org/10.1002/wcms.81
  2. Neese, F.
     Software update: the ORCA program system, version 4.0
     WIRES Comput. Molec. Sci. 2018 8(1), 1-6
     doi.org/10.1002/wcms.1327
  3. Neese, F.; Wennmohs, F.; Becker, U.; Riplinger, C.
     The ORCA quantum chemistry program package
     J. Chem. Phys. 2020 152(22), 224108
     doi.org/10.1063/5.0004608
  4. Neese, F.
     Software update: The ORCA program system—Version 5.0
     WIRES Comput. Molec. Sci. 2022 12(1), e1606
     doi.org/10.1002/wcms.1606

List of optional additional citations

  1. Neese, F.
     Approximate second-order SCF convergence for spin unrestricted wavefunctions
     Chem. Phys. Lett. 2000 325(1-3), 93-98
     doi.org/10.1016/s0009-2614(00)00662-x

Timings for individual modules:

Sum of individual times          ...    15384.393 sec (= 256.407 min)
Startup calculation              ...      361.990 sec (=   6.033 min)   2.4 %
SCF iterations                   ...     2882.479 sec (=  48.041 min)  18.7 %
Property integrals               ...     2974.804 sec (=  49.580 min)  19.3 %
SCF Response                     ...     5603.553 sec (=  93.393 min)  36.4 %
Property calculations            ...     2571.623 sec (=  42.860 min)  16.7 %
SCF Gradient evaluation          ...      949.614 sec (=  15.827 min)   6.2 %
Geometry relaxation              ...       40.329 sec (=   0.672 min)   0.3 %
                             ****ORCA TERMINATED NORMALLY****
TOTAL RUN TIME: 0 days 4 hours 16 minutes 46 seconds 220 msec
