
                                 *****************
                                 * O   R   C   A *
                                 *****************

                                            #,                                       
                                            ###                                      
                                            ####                                     
                                            #####                                    
                                            ######                                   
                                           ########,                                 
                                     ,,################,,,,,                         
                               ,,#################################,,                 
                          ,,##########################################,,             
                       ,#########################################, ''#####,          
                    ,#############################################,,   '####,        
                  ,##################################################,,,,####,       
                ,###########''''           ''''###############################       
              ,#####''   ,,,,##########,,,,          '''####'''          '####       
            ,##' ,,,,###########################,,,                        '##       
           ' ,,###''''                  '''############,,,                           
         ,,##''                                '''############,,,,        ,,,,,,###''
      ,#''                                            '''#######################'''  
     '                                                          ''''####''''         
             ,#######,   #######,   ,#######,      ##                                
            ,#'     '#,  ##    ##  ,#'     '#,    #''#        ,####,    ,#,          
            ##       ##  ##   ,#'  ##            #'  '#       #'       ,# #          
            ##       ##  #######   ##           ,######,      #####,      #          
            '#,     ,#'  ##    ##  '#,     ,#' ,#      #,     #,   #      #          
             '#######'   ##     ##  '#######'  #'      '#     '####' #    #          



                #########################################################
                #                        -***-                          #
                #          Department of theory and spectroscopy        #
                #                                                       #
                #                      Frank Neese                      #
                #                                                       #
                #     Directorship, Architecture, Infrastructure        #
                #                    SHARK, DRIVERS                     #
                #        Core code/Algorithms in most modules           #
                #                                                       #
                #        Max Planck Institute fuer Kohlenforschung      #
                #                Kaiser Wilhelm Platz 1                 #
                #                 D-45470 Muelheim/Ruhr                 #
                #                      Germany                          #
                #                                                       #
                #                  All rights reserved                  #
                #                        -***-                          #
                #########################################################


                         Program Version 6.1.0  -  RELEASE   -
                                (GIT: $679e74b$)
                          ($2025-06-10 18:02:51 +0200$)


 With contributions from (in alphabetic order):
[Max-Planck-Institut fuer Kohlenforschung]                               
  Daniel Aravena         : Magnetic Suceptibility                        
  Michael Atanasov       : Ab Initio Ligand Field Theory (pilot matlab implementation)
  Alexander A. Auer      : GIAO ZORA, VPT2 properties, NMR spectrum      
  Ute Becker             : All parallelization in ORCA, NUMFREQ, NUMCALC 
  Giovanni Bistoni       : ED, misc. LED, open-shell LED, HFLD           
  Dmytro Bykov           : pre 5.0 version of the SCF Hessian            
  Marcos Casanova-Páez   : Triplet and SCS-CIS(D). UHF-(DLPNO)-IP/EA/STEOM-CCSD. UHF-CVS-IP/STEOM-CCSD   
  Vijay G. Chilkuri      : MRCI spin determinant printing, contributions to CSF-ICE 
  Pauline Colinet        : FMM embedding                                 
  Dipayan Datta          : RHF DLPNO-CCSD density                        
  Achintya Kumar Dutta   : EOM-CC, STEOM-CC                              
  Nicolas Foglia         : Exact transition moments, OPA infrastructure, MCD improvements    
  Dmitry Ganyushin       : Spin-Orbit,Spin-Spin,Magnetic field MRCI      
  Miquel Garcia-Rates    : C-PCM and meta-GGA Hessian, CCSD/C-PCM, Gaussian charge scheme 
  Tiago L. C. Gouveia    : GS-ROHF, GS-ROCIS                             
  Yang Guo               : DLPNO-NEVPT2, F12-NEVPT2, CIM, IAO-localization        
  Andreas Hansen         : Spin unrestricted coupled pair/coupled cluster methods 
  Ingolf Harden          : AUTO-CI MPn and infrastructure                
  Benjamin Helmich-Paris : MC-RPA, TRAH-(SCF,CASSCF), AVAS, COSX integrals, SCF dyn. polar., MC-PDFT, srDFT 
  Lee Huntington         : MR-EOM, pCC                                   
  Robert Izsak           : Overlap fitted RIJCOSX, COSX-SCS-MP3, EOM     
  Riya Kayal             : Wick's Theorem for AUTO-CI, AUTO-CI UHF-CCSDT 
  Emily Kempfer          : AUTO-CI RHF CISDT and CCSDT, approximate NEVPT4
  Christian Kollmar      : KDIIS, OOCD, Brueckner-CCSD(T), CCSD density, CASPT2, CASPT2-K, improved NEVPT2 
  Axel Koslowski         : Symmetry handling                             
  Simone Kossmann        : meta-GGA functionals, TD-DFT gradient, OOMP2, (MP2 Hessian; deprecated post 5.0) 
  Lucas Lang             : DCDCAS, Hyperfine gauge corrections, ICE-SOC+SSC
  Marvin Lechner         : AUTO-CI (C++ implementation), FIC-MRCC        
  Spencer Leger          : CASSCF response                               
  Dagmar Lenk            : GEPOL surface, SMD, ORCA-2-JSON               
  Dimitrios Liakos       : Extrapolation schemes; Compound Job, Property file
  Dimitrios Manganas     : Further ROCIS development; embedding schemes. LFT, Crystal Embedding 
  Dimitrios Pantazis     : SARC Basis sets                               
  Anastasios Papadopoulos: AUTO-CI, single reference methods and gradients 
  Taras Petrenko         : pre 6.0 DFT Hessian and TD-DFT gradient,  ECA, NRVS 
  Petra Pikulova         : Analytic Raman intensities                    
  Peter Pinski           : DLPNO-MP2, DLPNO-MP2 Gradient                 
  Shashank Vittal Rao    : ES-AILFT, MagRelax                            
  Christoph Reimann      : Effective Core Potentials                     
  Marius Retegan         : Local ZFS, SOC                                
  Christoph Riplinger    : Optimizer, TS searches, QM/MM, DLPNO-CCSD(T), (RO)-DLPNO pert. Triples 
  Michael Roemelt        : Original ROCIS implementation, recursive CI coupling coefficients
  Masaaki Saitow         : Open-shell DLPNO-CCSD energy and density      
  Barbara Sandhoefer     : DKH picture change effects                    
  Yorick L. A. Schmerwitz: GMF and freeze-and-release deltaSCF, NEB S-IDPP initial path                    
  Kantharuban Sivalingam : CASSCF convergence/infrastructure, NEVPT2, NEVPT3, NEVPT4(SD), FIC-MRCI and CEPA variants
  Bernardo de Souza      : ESD, SOC TD-DFT                               
  Georgi L. Stoychev     : AutoAux, RI-MP2 NMR, DLPNO-MP2 response, X2C  
  Van Anh Tran           : RI-MP2 g-tensors                              
  Willem Van den Heuvel  : Paramagnetic NMR                              
  Zikuan Wang            : NOTCH, Electric field optimization            
  Frank Wennmohs         : Technical directorship and infrastructure     
  Hang Xu                : AUTO-CI-Response properties                   
                                                                         
[FACCTs GmbH]                                                            
  Markus Bursch, Nicolas Foglia, Miquel Garcia-Rates, Ingolf Harden, Hagen Neugebauer, Anastasios Papadopoulos, 
  Christoph Riplinger, Bernardo de Souza, Georgi L. Stoychev                                                    
                                                                 
  APM, various basis sets, CI-OPT, improved COSX, DLPNO-Multilevel,           
  DOCKER, DRACO, updates on ESD, Fragmentator, GOAT, IRC, LR-CPCM, L-BFGS, MBIS, meta-GGA TD-DFT gradient, ML-optimized integration grids, 
  MM, NACMEs, nearIR, NEB, NEB-TS, NL-DFT gradient (VV10), 2- and 3-layer-ONIOM, interface openCOSMO-RS, QMMM,   
  Crystal-QMMM, RESP, rigid body optimization, SF, symmetry and pop. for TD-DFT, various functionals, SOLVATOR                                   
                                                                         
[Other institutions]                                                     
  V. Asgeirsson          : NEB                                           
  Christoph Bannwarth    : sTDA-DFT, sTD-DFT, PBEh-3c, B97-3c, D3        
  Giovanni Bistoni       : ETS/NOCV, ADLD/ADEX, COVALED                  
  Martin Brehm           : Molecular dynamics                            
  Ronald Cardenas        : ETS/NOCV                                      
  Martina Colucci        : COVALED                                       
  Sebastian Ehlert       : rSCAN, r2SCAN, r2SCAN-3c, D4, dhf basis sets  
  Marvin Friede          : D4 for Fr, Ra, Ac-Lr                          
  Lars Goerigk           : TD-DFT with DH, B97 family of functionals     
  Stefan Grimme          : VdW corrections, initial TS optimization, DFT functionals, gCP, sTDA/sTD-DF 
  Waldemar Hujo          : DFT-NL                                        
  H. Jonsson             : NEB                                           
  Holger Kruse           : gCP                                           
  Marcel Mueller         : wB97X-3c, vDZP basis set                      
  Hagen Neugebauer       : wr2SCAN, Native XTB                           
  Gianluca Regni         : ADLD/ADEX                                     
  Tobias Risthaus        : pre 6.0 range-separated hybrid DFT and stability analysis
  Lukas Wittmann         : regularized MP2, r2SCAN double-hybrids, wr2SCAN        
                                                                         
We gratefully acknowledge several colleagues who have allowed us to      
interface, adapt or use parts of their codes:                            
  Ed Valeev, F. Pavosevic, A. Kumar             : LibInt (2-el integral package), F12 methods 
  Garnet Chan, S. Sharma, J. Yang, R. Olivares  : DMRG                   
  Ulf Ekstrom                                   : XCFun DFT Library      
  Mihaly Kallay                                 : mrcc  (arbitrary order and MRCC methods)
  Frank Weinhold                                : gennbo (NPA and NBO analysis)           
  Simon Mueller                                 : openCOSMO-RS                            
  Christopher J. Cramer and Donald G. Truhlar   : smd solvation model                     
  S Lehtola, MJT Oliveira, MAL Marques          : LibXC Library                           
  Liviu Ungur et al                             : ANISO software                          


 Your calculation uses the libint2 library for the computation of 2-el integrals
 For citations please refer to: http://libint.valeyev.net

 Your ORCA version has been built with support for libXC version: 7.0.0
 For citations please refer to: https://libxc.gitlab.io

 This ORCA versions uses:
   CBLAS   interface :  Fast vector & matrix operations
   LAPACKE interface :  Fast linear algebra routines
   SCALAPACK package :  Parallel linear algebra routines
   Shared memory     :  Shared parallel matrices
   BLAS/LAPACK       :  OpenBLAS 0.3.29  USE64BITINT DYNAMIC_ARCH NO_AFFINITY Bulldozer SINGLE_THREADED
        Core in use  :  Bulldozer
   Copyright (c) 2011-2014, The OpenBLAS Project


  ***********************************
  * Starting time: Wed Aug 27 18:18:03 2025
  * Host name:     chromium09
  * Process ID:    637247
  * Working dir.:  /local/scratch/mehlhorn/62300
  ***********************************



***************************************
The coordinates will be read from file: start.xyz
***************************************


Your calculation utilizes the atom-pairwise dispersion correction
with the Becke-Johnson damping scheme (D3BJ)


Warning: RI is on but no J-basis has been assigned. Assigning Def2/J (nothing to worry about!)
================================================================================

----- Orbital basis set information -----
Your calculation utilizes the basis: def2-TZVP
   F. Weigend and R. Ahlrichs, Phys. Chem. Chem. Phys. 7, 3297 (2005).

----- AuxJ basis set information -----
Your calculation utilizes the auxiliary basis: def2/J
   H-Rn: F. Weigend, Phys. Chem. Chem. Phys. 8, 1057 (2006).
   Fr-Lr: K. Eichkorn, F. Weigend, O. Treutler, R. Ahlrichs; Theor. Chem. Acc. 97, 119 (1997).

================================================================================
                                        WARNINGS
                       Please study these warnings very carefully!
================================================================================


WARNING: Geometry Optimization
  ===> : Switching off AutoStart
         For restart on a previous wavefunction, please use MOREAD

================================================================================
                                       INPUT FILE
================================================================================
NAME = run.inp
|  1> # Geometry optimization for (AlH3)n cluster
|  2> 
|  3> %pal nprocs 24  end
|  4> 
|  5> %geom MaxIter 500 end
|  6> 
|  7> %cpcm
|  8> 	epsilon 1.95778548766667
|  9> end
| 10> 
| 11> ! PBE def2-TZVP
| 12> ! RKS	# closed shell for AlH3
| 13> ! D3    #  dispersion correction
| 14> ! Freq 	# Frequency analysis to check the stabiltity of the structures
| 15> 
| 16> ! NoPop # population analysis not necessary	
| 17> 
| 18> ! DEFGRID3
| 19> ! TightSCF
| 20> ! TightOpt
| 21> 
| 22> ! SmallPrint
| 23> 
| 24> 
| 25> * xyzFile 0 1 start.xyz # only maingroup elements H and Al so there should be no net spin
| 26> 
| 27>                          ****END OF INPUT****
================================================================================

                       *****************************
                       * Geometry Optimization Run *
                       *****************************

Geometry optimization settings:
Update method            Update   .... BFGS
Choice of coordinates    CoordSys .... (2022) Redundant Internals
Initial Hessian          InHess   .... Almloef's Model
Max. no of cycles        MaxIter  .... 500

Convergence Tolerances:
Energy Change            TolE     ....  1.0000e-06 Eh
Max. Gradient            TolMAXG  ....  1.0000e-04 Eh/bohr
RMS Gradient             TolRMSG  ....  3.0000e-05 Eh/bohr
Max. Displacement        TolMAXD  ....  1.0000e-03 bohr
RMS Displacement         TolRMSD  ....  6.0000e-04 bohr
Strict Convergence                .... False

------------------------------------------------------------------------------
                        ORCA OPTIMIZATION COORDINATE SETUP
------------------------------------------------------------------------------

The optimization will be done in redundant internal coordinates (2022)
Making redundant internal coordinates   ...  (2022 redundants) done
Evaluating the initial hessian          ...  (Almloef) done
Evaluating the coordinates              ...  done
Calculating the B-matrix                .... done
Calculating the G-matrix                .... done
The number of degrees of freedom        ....  502

    -----------------------------------------------------------------
                    Redundant Internal Coordinates


    -----------------------------------------------------------------
         Definition                    Initial Value    Approx d2E/dq
    -----------------------------------------------------------------
      1. B(Al  1,Al  0)                  3.1984         0.039964   
      2. B(Al  2,Al  0)                  3.1947         0.040519   
      3. B(Al  3,Al  1)                  3.0807         0.061593   
      4. B(Al  3,Al  2)                  3.0965         0.058116   
      5. B(Al  4,Al  3)                  3.0907         0.059370   
      6. B(Al  4,Al  2)                  2.7099         0.240477   
      7. B(Al  5,Al  3)                  3.1988         0.039904   
      8. B(Al  5,Al  4)                  3.0645         0.065365   
      9. B(Al  6,Al  5)                  2.9052         0.117354   
     10. B(Al  6,Al  3)                  3.1497         0.047791   
     11. B(H   7,Al  0)                  1.5893         0.403159   
     12. B(H   8,Al  0)                  1.5918         0.399454   
     13. B(H   9,Al  1)                  1.5904         0.401444   
     14. B(H  10,Al  1)                  1.5905         0.401266   
     15. B(H  11,Al  0)                  1.7149         0.254115   
     16. B(H  11,Al  1)                  1.7095         0.259190   
     17. B(H  12,Al  2)                  1.7589         0.216198   
     18. B(H  12,Al  0)                  1.6993         0.269101   
     19. B(H  13,Al  2)                  1.5798         0.417392   
     20. B(H  14,Al  4)                  1.9200         0.119632   
     21. B(H  14,Al  2)                  1.6689         0.300914   
     22. B(H  15,Al  5)                  1.6570         0.314377   
     23. B(H  15,Al  4)                  1.8833         0.136902   
     24. B(H  16,Al  4)                  1.6757         0.293445   
     25. B(H  16,Al  3)                  1.8054         0.182236   
     26. B(H  17,Al  4)                  1.6435         0.330349   
     27. B(H  17,Al  2)                  2.0142         0.084614   
     28. B(H  18,Al  4)                  1.5810         0.415590   
     29. B(H  19,Al  6)                  1.7474         0.225550   
     30. B(H  19,Al  5)                  1.7005         0.267913   
     31. B(H  20,Al  6)                  1.5866         0.407136   
     32. B(H  21,Al  6)                  1.5953         0.394324   
     33. B(H  22,Al  6)                  1.6784         0.290592   
     34. B(H  22,Al  3)                  1.7732         0.205111   
     35. B(H  23,Al  3)                  1.7458         0.226842   
     36. B(H  23,Al  1)                  1.7119         0.256969   
     37. B(H  24,Al  3)                  1.7815         0.198975   
     38. B(H  24,Al  2)                  1.6694         0.300295   
     39. B(H  25,Al  3)                  1.5938         0.396531   
     40. B(H  26,Al  5)                  1.6584         0.312675   
     41. B(H  26,Al  3)                  1.8781         0.139516   
     42. B(H  27,Al  5)                  1.5813         0.415178   
     43. A(H   8,Al  0,H  12)          108.5565         0.358850   
     44. A(Al  2,Al  0,H   7)          128.5736         0.303889   
     45. A(Al  1,Al  0,H  11)           20.8967         0.281971   
     46. A(H  11,Al  0,H  12)           98.6962         0.332591   
     47. A(Al  2,Al  0,H  11)           84.9660         0.282574   
     48. A(H   8,Al  0,H  11)          107.2407         0.355373   
     49. A(Al  2,Al  0,H   8)           95.4953         0.303441   
     50. A(Al  2,Al  0,H  12)           22.9240         0.285101   
     51. A(Al  1,Al  0,Al  2)           80.0156         0.244349   
     52. A(Al  1,Al  0,H   8)           87.4215         0.302773   
     53. A(H   7,Al  0,H  12)          106.9537         0.359414   
     54. A(Al  1,Al  0,H  12)           99.3694         0.284489   
     55. A(H   7,Al  0,H   8)          127.0044         0.384705   
     56. A(H   7,Al  0,H  11)          104.7636         0.355930   
     57. A(Al  1,Al  0,H   7)          123.6328         0.303220   
     58. A(Al  3,Al  1,H   9)          128.2274         0.325026   
     59. A(Al  0,Al  1,H   9)          114.9764         0.303013   
     60. A(Al  0,Al  1,H  10)           91.5994         0.302992   
     61. A(Al  3,Al  1,H  11)           71.8695         0.302774   
     62. A(Al  0,Al  1,H  11)           20.9655         0.282836   
     63. A(H  10,Al  1,H  11)          111.2419         0.356842   
     64. A(H   9,Al  1,H  11)          105.6915         0.356868   
     65. A(H   9,Al  1,H  23)          106.9911         0.356347   
     66. A(Al  0,Al  1,H  23)          107.0337         0.282459   
     67. A(H  11,Al  1,H  23)           93.3715         0.331142   
     68. A(Al  3,Al  1,H  10)           99.4120         0.325003   
     69. A(H   9,Al  1,H  10)          126.7941         0.384722   
     70. A(H  10,Al  1,H  23)          107.5868         0.356320   
     71. A(Al  3,Al  1,H  23)           27.2921         0.302358   
     72. A(Al  0,Al  1,Al  3)           81.4705         0.259794   
     73. A(H  13,Al  2,H  14)          125.6154         0.368527   
     74. A(H  12,Al  2,H  17)          166.3502         0.269738   
     75. A(H  13,Al  2,H  17)           89.0330         0.298754   
     76. A(Al  3,Al  2,H  14)           78.4355         0.307231   
     77. A(H  14,Al  2,H  17)           78.9561         0.283782   
     78. A(H  14,Al  2,H  24)          104.9630         0.348452   
     79. A(Al  3,Al  2,H  13)          150.7851         0.324006   
     80. A(Al  0,Al  2,H  17)          153.8361         0.239921   
     81. A(Al  0,Al  2,Al  3)           81.2885         0.258090   
     82. A(Al  3,Al  2,H  24)           27.1255         0.307129   
     83. A(Al  3,Al  2,H  12)           87.8461         0.291496   
     84. A(Al  3,Al  2,H  17)           79.0558         0.252758   
     85. A(H  17,Al  2,H  24)           78.9046         0.283691   
     86. A(Al  0,Al  2,H  13)          100.0531         0.305583   
     87. A(Al  4,Al  2,H  12)          132.2556         0.368264   
     88. A(H  12,Al  2,H  24)           91.2048         0.329745   
     89. A(Al  4,Al  2,H  17)           37.1636         0.314841   
     90. A(Al  4,Al  2,H  24)           80.3060         0.389824   
     91. A(Al  3,Al  2,Al  4)           63.9141         0.342029   
     92. A(Al  0,Al  2,H  12)           22.1056         0.275622   
     93. A(Al  0,Al  2,H  14)          113.7248         0.290123   
     94. A(H  13,Al  2,H  24)          124.5329         0.368396   
     95. A(Al  4,Al  2,H  13)          119.1345         0.413099   
     96. A(H  12,Al  2,H  13)          104.3935         0.348372   
     97. A(Al  4,Al  2,H  14)           44.5801         0.389964   
     98. A(Al  0,Al  2,Al  4)          140.7704         0.322194   
     99. A(Al  0,Al  2,H  24)           75.7287         0.290030   
    100. A(H  12,Al  2,H  14)           94.7761         0.329858   
    101. A(Al  1,Al  3,H  26)           89.4923         0.274811   
    102. A(H  23,Al  3,H  25)          104.2735         0.348184   
    103. A(Al  1,Al  3,Al  4)          130.0845         0.275801   
    104. A(Al  4,Al  3,H  22)          110.3331         0.290066   
    105. A(Al  2,Al  3,H  22)          161.8950         0.289097   
    106. A(Al  1,Al  3,H  22)          114.3332         0.291746   
    107. A(Al  6,Al  3,H  26)           63.6359         0.264441   
    108. A(Al  2,Al  3,Al  5)           94.2907         0.257505   
    109. A(H  16,Al  3,H  22)           87.2154         0.301465   
    110. A(H  22,Al  3,H  25)           96.7273         0.342343   
    111. A(Al  6,Al  3,H  22)           23.4440         0.280431   
    112. A(Al  4,Al  3,Al  5)           58.2881         0.258321   
    113. A(H  24,Al  3,H  26)           76.0741         0.287630   
    114. A(Al  5,Al  3,H  22)           75.9547         0.272774   
    115. A(Al  5,Al  3,H  24)           89.5180         0.271515   
    116. A(Al  6,Al  3,H  24)          139.5234         0.279120   
    117. A(Al  4,Al  3,H  24)           68.0349         0.288689   
    118. A(H  23,Al  3,H  24)           84.6788         0.310730   
    119. A(H  25,Al  3,H  26)          174.3407         0.321182   
    120. A(H  22,Al  3,H  24)          162.7520         0.305733   
    121. A(Al  2,Al  3,H  24)           25.2943         0.287726   
    122. A(H  16,Al  3,H  26)           81.6699         0.283718   
    123. A(Al  5,Al  3,H  26)           23.6137         0.257423   
    124. A(Al  4,Al  3,H  26)           71.4534         0.273271   
    125. A(Al  2,Al  3,H  26)           89.6779         0.272383   
    126. A(H  24,Al  3,H  25)          100.3503         0.340607   
    127. A(H  22,Al  3,H  26)           87.0785         0.289000   
    128. A(H  23,Al  3,H  26)           79.9249         0.293611   
    129. A(Al  1,Al  3,Al  5)          113.0134         0.259736   
    130. A(Al  2,Al  3,H  25)           85.4112         0.321294   
    131. A(Al  1,Al  3,H  25)           92.7311         0.324369   
    132. A(Al  6,Al  3,H  25)          120.1194         0.311234   
    133. A(Al  4,Al  3,H  25)          103.2132         0.322419   
    134. A(H  16,Al  3,H  23)          161.3414         0.306363   
    135. A(Al  5,Al  3,Al  6)           54.4598         0.250207   
    136. A(H  16,Al  3,H  24)           93.8676         0.300009   
    137. A(Al  6,Al  3,H  16)           84.4221         0.275376   
    138. A(Al  1,Al  3,Al  2)           83.4202         0.274901   
    139. A(Al  5,Al  3,H  16)           60.9181         0.267920   
    140. A(Al  1,Al  3,H  24)           62.6371         0.290357   
    141. A(Al  4,Al  3,H  16)           26.3102         0.284756   
    142. A(Al  2,Al  3,H  16)           74.6890         0.283813   
    143. A(Al  1,Al  3,H  16)          156.3535         0.286392   
    144. A(Al  4,Al  3,Al  6)          100.8747         0.265377   
    145. A(Al  2,Al  3,Al  6)          148.4032         0.264527   
    146. A(Al  2,Al  3,Al  4)           51.9510         0.273361   
    147. A(H  16,Al  3,H  25)           94.2977         0.335652   
    148. A(Al  6,Al  3,H  23)           84.6996         0.284845   
    149. A(Al  5,Al  3,H  23)          100.4384         0.277010   
    150. A(Al  4,Al  3,H  23)          144.1394         0.294702   
    151. A(Al  1,Al  3,H  23)           26.7187         0.296420   
    152. A(Al  5,Al  3,H  25)          154.0832         0.302344   
    153. A(Al  1,Al  3,Al  6)          111.2451         0.266850   
    154. A(H  22,Al  3,H  23)           88.8114         0.312260   
    155. A(Al  2,Al  3,H  23)          108.1532         0.293710   
    156. A(Al  5,Al  4,H  14)          135.7691         0.270886   
    157. A(Al  3,Al  4,H  14)           75.6715         0.266969   
    158. A(Al  2,Al  4,H  14)           37.5977         0.333256   
    159. A(Al  3,Al  4,Al  5)           62.6224         0.278331   
    160. A(Al  3,Al  4,H  17)           84.4860         0.312969   
    161. A(Al  2,Al  4,Al  5)          105.9648         0.348850   
    162. A(H  17,Al  4,H  18)          127.4924         0.374215   
    163. A(H  16,Al  4,H  18)          120.0002         0.366669   
    164. A(H  15,Al  4,H  18)           97.1199         0.322660   
    165. A(H  14,Al  4,H  18)           99.1866         0.315636   
    166. A(Al  5,Al  4,H  18)          123.6960         0.330105   
    167. A(Al  3,Al  4,H  18)          147.2039         0.324913   
    168. A(Al  2,Al  4,H  18)          129.2069         0.412782   
    169. A(H  16,Al  4,H  17)          112.4676         0.352611   
    170. A(H  14,Al  4,H  17)           82.4166         0.304162   
    171. A(Al  5,Al  4,H  17)           79.7159         0.317898   
    172. A(H  15,Al  4,H  17)           89.1796         0.310830   
    173. A(H  15,Al  4,H  16)           84.7421         0.304961   
    174. A(H  14,Al  4,H  16)           85.4832         0.298469   
    175. A(Al  5,Al  4,H  16)           65.1180         0.311842   
    176. A(Al  3,Al  4,H  16)           28.5243         0.307043   
    177. A(Al  2,Al  4,H  16)           88.3829         0.388257   
    178. A(Al  2,Al  4,Al  3)           64.1349         0.343254   
    179. A(Al  2,Al  4,H  17)           47.7634         0.396389   
    180. A(H  14,Al  4,H  15)          163.5832         0.265269   
    181. A(Al  5,Al  4,H  15)           27.9907         0.276523   
    182. A(Al  3,Al  4,H  15)           89.5495         0.272484   
    183. A(Al  2,Al  4,H  15)          128.8429         0.340826   
    184. A(Al  3,Al  5,Al  4)           59.0895         0.262048   
    185. A(H  15,Al  5,H  19)           97.7843         0.344355   
    186. A(Al  6,Al  5,H  19)           33.0841         0.338215   
    187. A(Al  4,Al  5,H  19)           99.6096         0.307298   
    188. A(Al  3,Al  5,H  19)           81.0815         0.284227   
    189. A(H  26,Al  5,H  27)          118.2097         0.370624   
    190. A(H  15,Al  5,H  27)          116.4633         0.370970   
    191. A(Al  6,Al  5,H  27)          114.0630         0.364191   
    192. A(Al  4,Al  5,H  27)          138.5693         0.330051   
    193. A(Al  3,Al  5,H  27)          144.7412         0.304575   
    194. A(H  19,Al  5,H  26)          100.1024         0.344041   
    195. A(H  15,Al  5,H  26)          106.2679         0.353443   
    196. A(Al  6,Al  5,H  26)           71.8838         0.347085   
    197. A(Al  4,Al  5,H  26)           74.2763         0.315067   
    198. A(Al  3,Al  5,H  26)           26.9766         0.291174   
    199. A(Al  4,Al  5,Al  6)          107.3674         0.309903   
    200. A(Al  3,Al  5,Al  6)           61.9090         0.286556   
    201. A(Al  6,Al  5,H  15)          121.7387         0.347402   
    202. A(Al  4,Al  5,H  15)           32.2372         0.315345   
    203. A(Al  3,Al  5,H  15)           90.1587         0.291423   
    204. A(H  19,Al  5,H  27)          114.9946         0.360946   
    205. A(H  21,Al  6,H  22)          108.9790         0.362781   
    206. A(H  20,Al  6,H  22)          110.2395         0.364770   
    207. A(H  19,Al  6,H  22)           96.8143         0.330264   
    208. A(Al  5,Al  6,H  22)           86.2756         0.342841   
    209. A(Al  3,Al  6,H  22)           24.8555         0.296137   
    210. A(H  20,Al  6,H  21)          128.5949         0.384496   
    211. A(H  19,Al  6,H  21)          102.8565         0.347522   
    212. A(Al  5,Al  6,H  21)           77.8398         0.360999   
    213. A(Al  3,Al  6,H  21)           93.0367         0.310954   
    214. A(H  19,Al  6,H  20)          104.0780         0.349400   
    215. A(Al  5,Al  6,H  20)          136.0285         0.362975   
    216. A(Al  3,Al  6,H  20)          133.4536         0.312566   
    217. A(Al  5,Al  6,H  19)           32.0888         0.328693   
    218. A(Al  3,Al  6,H  19)           81.9763         0.284592   
    219. A(Al  3,Al  6,Al  5)           63.6311         0.294788   
    220. A(Al  0,H  11,Al  1)          138.1378         0.330531   
    221. A(Al  0,H  12,Al  2)          134.9704         0.323843   
    222. A(Al  2,H  14,Al  4)           97.8222         0.299664   
    223. A(Al  4,H  15,Al  5)          119.7721         0.308355   
    224. A(Al  3,H  16,Al  4)          125.1655         0.319405   
    225. A(Al  2,H  17,Al  4)           95.0730         0.287940   
    226. A(Al  5,H  19,Al  6)          114.8272         0.325867   
    227. A(Al  3,H  22,Al  6)          131.7006         0.325132   
    228. A(Al  1,H  23,Al  3)          125.9892         0.323945   
    229. A(Al  2,H  24,Al  3)          127.5802         0.325264   
    230. A(Al  3,H  26,Al  5)          129.4097         0.309026   
    231. D(H   9,Al  1,Al  0,H   7)     39.7171         0.010000   
    232. D(Al  3,Al  1,Al  0,H   8)    137.4516         0.010000   
    233. D(Al  3,Al  1,Al  0,H  11)    -60.7899         0.010000   
    234. D(H   9,Al  1,Al  0,H   8)    -94.2034         0.010000   
    235. D(Al  3,Al  1,Al  0,Al  2)     41.4093         0.010000   
    236. D(H   9,Al  1,Al  0,Al  2)    169.7543         0.010000   
    237. D(H   9,Al  1,Al  0,H  12)    157.4093         0.010000   
    238. D(H   9,Al  1,Al  0,H  11)     67.5552         0.010000   
    239. D(Al  3,Al  1,Al  0,H   7)    -88.6279         0.010000   
    240. D(Al  3,Al  1,Al  0,H  12)     29.0643         0.010000   
    241. D(Al  4,Al  2,Al  0,Al  1)    -68.1672         0.010000   
    242. D(Al  3,Al  2,Al  0,H  12)    106.0338         0.010000   
    243. D(H  12,Al  2,Al  0,H   7)    -21.8338         0.010000   
    244. D(Al  3,Al  2,Al  0,H  11)    -20.6898         0.010000   
    245. D(Al  4,Al  2,Al  0,H   8)   -154.5651         0.010000   
    246. D(H  12,Al  2,Al  0,Al  1)   -147.2097         0.010000   
    247. D(Al  4,Al  2,Al  0,H  12)     79.0425         0.010000   
    248. D(Al  4,Al  2,Al  0,H  11)    -47.6812         0.010000   
    249. D(Al  3,Al  2,Al  0,H   7)     84.2000         0.010000   
    250. D(Al  3,Al  2,Al  0,H   8)   -127.5737         0.010000   
    251. D(Al  3,Al  2,Al  0,Al  1)    -41.1758         0.010000   
    252. D(Al  4,Al  2,Al  0,H   7)     57.2086         0.010000   
    253. D(Al  4,Al  3,Al  1,H   9)    177.4807         0.010000   
    254. D(Al  4,Al  3,Al  2,H  13)    103.5998         0.010000   
    255. D(Al  4,Al  3,Al  2,H  24)    122.9898         0.010000   
    256. D(Al  2,Al  3,Al  1,H  11)    -61.7580         0.010000   
    257. D(Al  5,Al  3,Al  2,H  12)    176.5842         0.010000   
    258. D(Al  2,Al  3,Al  1,H  23)    157.9262         0.010000   
    259. D(Al  5,Al  3,Al  2,H  13)     60.3272         0.010000   
    260. D(Al  4,Al  3,Al  2,H  12)   -140.1432         0.010000   
    261. D(Al  5,Al  3,Al  2,Al  0)    155.3653         0.010000   
    262. D(Al  1,Al  3,Al  2,H  24)    -32.9881         0.010000   
    263. D(Al  4,Al  3,Al  1,H  11)    -86.5296         0.010000   
    264. D(Al  4,Al  3,Al  2,H  14)    -44.8217         0.010000   
    265. D(Al  4,Al  3,Al  1,Al  0)    -67.3444         0.010000   
    266. D(Al  1,Al  3,Al  2,H  13)    -52.3780         0.010000   
    267. D(Al  5,Al  3,Al  1,H   9)    110.3708         0.010000   
    268. D(Al  2,Al  3,Al  1,Al  0)    -42.5728         0.010000   
    269. D(Al  5,Al  3,Al  1,H  23)     66.0447         0.010000   
    270. D(Al  1,Al  3,Al  2,Al  0)     42.6601         0.010000   
    271. D(Al  5,Al  3,Al  1,H  11)   -153.6394         0.010000   
    272. D(Al  1,Al  3,Al  2,H  17)   -119.9823         0.010000   
    273. D(Al  1,Al  3,Al  2,H  14)    159.2005         0.010000   
    274. D(Al  4,Al  3,Al  1,H  10)     22.8703         0.010000   
    275. D(Al  4,Al  3,Al  2,H  17)     35.9955         0.010000   
    276. D(Al  2,Al  3,Al  1,H  10)     47.6419         0.010000   
    277. D(Al  5,Al  3,Al  1,H  10)    -44.2395         0.010000   
    278. D(Al  4,Al  3,Al  2,Al  0)   -161.3621         0.010000   
    279. D(Al  1,Al  3,Al  2,H  12)     63.8790         0.010000   
    280. D(Al  5,Al  3,Al  2,Al  4)    -43.2726         0.010000   
    281. D(Al  5,Al  3,Al  1,Al  0)   -134.4543         0.010000   
    282. D(Al  4,Al  3,Al  1,H  23)    133.1546         0.010000   
    283. D(Al  1,Al  3,Al  2,Al  4)   -155.9778         0.010000   
    284. D(Al  2,Al  3,Al  1,H   9)   -157.7477         0.010000   
    285. D(Al  5,Al  4,Al  2,Al  0)     77.8809         0.010000   
    286. D(Al  3,Al  4,Al  2,H  17)   -107.2140         0.010000   
    287. D(Al  5,Al  4,Al  2,H  12)    107.8253         0.010000   
    288. D(Al  3,Al  4,Al  2,H  14)    100.3009         0.010000   
    289. D(Al  5,Al  4,Al  2,Al  3)     47.9139         0.010000   
    290. D(Al  3,Al  4,Al  2,H  12)     59.9114         0.010000   
    291. D(Al  3,Al  4,Al  2,Al  0)     29.9671         0.010000   
    292. D(Al  3,Al  4,Al  2,H  13)   -147.1039         0.010000   
    293. D(Al  5,Al  4,Al  3,H  24)   -103.8008         0.010000   
    294. D(Al  5,Al  4,Al  3,H  22)     57.7772         0.010000   
    295. D(Al  5,Al  4,Al  3,H  25)    160.2123         0.010000   
    296. D(Al  5,Al  4,Al  3,Al  6)     35.4633         0.010000   
    297. D(Al  5,Al  4,Al  3,H  16)     87.7407         0.010000   
    298. D(Al  5,Al  4,Al  3,Al  1)    -94.6241         0.010000   
    299. D(Al  2,Al  4,Al  3,H  26)    104.7768         0.010000   
    300. D(Al  2,Al  4,Al  3,H  25)    -73.2545         0.010000   
    301. D(Al  2,Al  4,Al  3,H  24)     22.7324         0.010000   
    302. D(Al  2,Al  4,Al  3,H  23)     65.9577         0.010000   
    303. D(Al  2,Al  4,Al  3,H  22)   -175.6896         0.010000   
    304. D(Al  2,Al  4,Al  3,H  16)   -145.7261         0.010000   
    305. D(Al  2,Al  4,Al  3,Al  6)    161.9965         0.010000   
    306. D(Al  2,Al  4,Al  3,Al  5)    126.5332         0.010000   
    307. D(H  14,Al  4,Al  2,Al  0)    -70.3338         0.010000   
    308. D(Al  5,Al  4,Al  3,Al  2)   -126.5332         0.010000   
    309. D(Al  2,Al  4,Al  3,Al  1)     31.9091         0.010000   
    310. D(Al  5,Al  4,Al  2,H  17)    -59.3001         0.010000   
    311. D(Al  5,Al  4,Al  2,H  24)     25.0857         0.010000   
    312. D(Al  5,Al  4,Al  3,H  23)    -60.5755         0.010000   
    313. D(Al  5,Al  4,Al  2,H  14)    148.2147         0.010000   
    314. D(Al  5,Al  4,Al  2,H  13)    -99.1900         0.010000   
    315. D(Al  3,Al  4,Al  2,H  24)    -22.8282         0.010000   
    316. D(Al  6,Al  5,Al  4,H  17)   -129.4155         0.010000   
    317. D(Al  6,Al  5,Al  4,H  16)     -8.5985         0.010000   
    318. D(Al  6,Al  5,Al  4,H  14)    -61.6661         0.010000   
    319. D(Al  6,Al  5,Al  4,Al  3)    -40.3330         0.010000   
    320. D(Al  6,Al  5,Al  4,Al  2)    -89.0990         0.010000   
    321. D(Al  3,Al  5,Al  4,H  17)    -89.0825         0.010000   
    322. D(Al  3,Al  5,Al  4,H  16)     31.7345         0.010000   
    323. D(Al  6,Al  5,Al  4,H  18)    102.0842         0.010000   
    324. D(Al  3,Al  5,Al  4,H  15)    162.8357         0.010000   
    325. D(Al  3,Al  5,Al  4,Al  2)    -48.7660         0.010000   
    326. D(Al  6,Al  5,Al  3,H  24)   -160.1972         0.010000   
    327. D(Al  6,Al  5,Al  3,H  23)    -75.6976         0.010000   
    328. D(Al  3,Al  5,Al  4,H  14)    -21.3331         0.010000   
    329. D(Al  6,Al  5,Al  3,H  22)     10.4130         0.010000   
    330. D(Al  6,Al  5,Al  3,H  16)    105.1071         0.010000   
    331. D(Al  6,Al  5,Al  3,Al  4)    135.5565         0.010000   
    332. D(Al  6,Al  5,Al  3,Al  2)    174.9417         0.010000   
    333. D(Al  6,Al  5,Al  3,Al  1)   -100.3931         0.010000   
    334. D(Al  4,Al  5,Al  3,H  26)    118.6837         0.010000   
    335. D(Al  4,Al  5,Al  3,H  25)    -48.9434         0.010000   
    336. D(Al  3,Al  5,Al  4,H  18)    142.4172         0.010000   
    337. D(Al  4,Al  5,Al  3,H  24)     64.2463         0.010000   
    338. D(Al  4,Al  5,Al  3,H  23)    148.7459         0.010000   
    339. D(Al  4,Al  5,Al  3,H  16)    -30.4494         0.010000   
    340. D(Al  6,Al  5,Al  4,H  15)    122.5027         0.010000   
    341. D(Al  4,Al  5,Al  3,Al  6)   -135.5565         0.010000   
    342. D(Al  4,Al  5,Al  3,Al  2)     39.3852         0.010000   
    343. D(Al  4,Al  5,Al  3,Al  1)    124.0503         0.010000   
    344. D(Al  4,Al  5,Al  3,H  22)   -125.1435         0.010000   
    345. D(H  19,Al  6,Al  3,Al  5)     27.7381         0.010000   
    346. D(H  19,Al  6,Al  3,Al  1)    131.4923         0.010000   
    347. D(H  19,Al  6,Al  3,Al  4)     -9.6030         0.010000   
    348. D(Al  5,Al  6,Al  3,H  26)     25.4842         0.010000   
    349. D(Al  5,Al  6,Al  3,H  25)   -149.7080         0.010000   
    350. D(Al  5,Al  6,Al  3,H  23)    106.8512         0.010000   
    351. D(Al  5,Al  6,Al  3,H  22)   -153.8505         0.010000   
    352. D(Al  5,Al  6,Al  3,H  16)    -57.9664         0.010000   
    353. D(Al  5,Al  6,Al  3,Al  4)    -37.3411         0.010000   
    354. D(H  19,Al  6,Al  3,Al  2)     18.0776         0.010000   
    355. D(Al  5,Al  6,Al  3,Al  2)     -9.6605         0.010000   
    356. D(Al  5,Al  6,Al  3,H  24)     31.4585         0.010000   
    357. D(Al  5,Al  6,Al  3,Al  1)    103.7542         0.010000   
    358. D(H  20,Al  6,Al  5,Al  3)   -126.2831         0.010000   
    359. D(H  19,Al  6,Al  5,H  26)   -147.1687         0.010000   
    360. D(H  19,Al  6,Al  5,H  15)    -48.8777         0.010000   
    361. D(H  19,Al  6,Al  5,Al  4)    -80.8142         0.010000   
    362. D(Al  3,Al  6,Al  5,H  27)   -140.8353         0.010000   
    363. D(Al  3,Al  6,Al  5,H  26)    -27.3448         0.010000   
    364. D(H  19,Al  6,Al  5,Al  3)   -119.8239         0.010000   
    365. D(Al  3,Al  6,Al  5,H  19)    119.8239         0.010000   
    366. D(Al  3,Al  6,Al  5,H  15)     70.9462         0.010000   
    367. D(Al  3,Al  6,Al  5,Al  4)     39.0097         0.010000   
    368. D(H  19,Al  6,Al  5,H  27)     99.3408         0.010000   
    369. D(H  19,Al  6,Al  3,H  22)   -126.1123         0.010000   
    370. D(H  19,Al  6,Al  3,H  16)    -30.2283         0.010000   
    371. D(Al  0,H  11,Al  1,H  23)    131.7873         0.010000   
    372. D(Al  0,H  11,Al  1,H  10)     21.4445         0.010000   
    373. D(Al  0,H  11,Al  1,H   9)   -119.5128         0.010000   
    374. D(Al  0,H  11,Al  1,Al  3)    114.7316         0.010000   
    375. D(Al  1,H  11,Al  0,H  12)    -93.5039         0.010000   
    376. D(Al  1,H  11,Al  0,H   8)     19.1121         0.010000   
    377. D(Al  1,H  11,Al  0,H   7)    156.2918         0.010000   
    378. D(Al  1,H  11,Al  0,Al  2)    -75.0927         0.010000   
    379. D(Al  0,H  12,Al  2,H  24)    -45.0092         0.010000   
    380. D(Al  0,H  12,Al  2,H  17)    -88.2011         0.010000   
    381. D(Al  0,H  12,Al  2,H  14)   -150.1333         0.010000   
    382. D(Al  0,H  12,Al  2,H  13)     81.2029         0.010000   
    383. D(Al  0,H  12,Al  2,Al  4)   -122.9779         0.010000   
    384. D(Al  0,H  12,Al  2,Al  3)    -71.9308         0.010000   
    385. D(Al  2,H  12,Al  0,H  11)     53.8740         0.010000   
    386. D(Al  2,H  12,Al  0,H   8)    -57.6950         0.010000   
    387. D(Al  2,H  12,Al  0,H   7)    162.3033         0.010000   
    388. D(Al  2,H  12,Al  0,Al  1)     32.7228         0.010000   
    389. D(Al  2,H  14,Al  4,H  18)    147.0890         0.010000   
    390. D(Al  2,H  14,Al  4,H  17)     20.1852         0.010000   
    391. D(Al  2,H  14,Al  4,H  16)    -93.2213         0.010000   
    392. D(Al  2,H  14,Al  4,H  15)    -39.6184         0.010000   
    393. D(Al  2,H  14,Al  4,Al  5)    -46.5519         0.010000   
    394. D(Al  2,H  14,Al  4,Al  3)    -66.0281         0.010000   
    395. D(Al  4,H  14,Al  2,H  24)     58.6997         0.010000   
    396. D(Al  4,H  14,Al  2,H  17)    -16.5196         0.010000   
    397. D(Al  4,H  14,Al  2,H  13)    -97.2568         0.010000   
    398. D(Al  4,H  14,Al  2,H  12)    151.2313         0.010000   
    399. D(Al  4,H  14,Al  2,Al  3)     64.4182         0.010000   
    400. D(Al  4,H  14,Al  2,Al  0)    139.4195         0.010000   
    401. D(Al  4,H  15,Al  5,H  27)    141.3278         0.010000   
    402. D(Al  4,H  15,Al  5,H  26)      7.2760         0.010000   
    403. D(Al  4,H  15,Al  5,H  19)    -95.6867         0.010000   
    404. D(Al  4,H  15,Al  5,Al  6)    -71.1653         0.010000   
    405. D(Al  4,H  15,Al  5,Al  3)    -14.6669         0.010000   
    406. D(Al  5,H  15,Al  4,H  18)    162.9913         0.010000   
    407. D(Al  5,H  15,Al  4,H  17)    -69.2990         0.010000   
    408. D(Al  5,H  15,Al  4,H  16)     43.3530         0.010000   
    409. D(Al  5,H  15,Al  4,H  14)    -10.3360         0.010000   
    410. D(Al  5,H  15,Al  4,Al  3)     15.1927         0.010000   
    411. D(Al  5,H  15,Al  4,Al  2)    -40.3035         0.010000   
    412. D(Al  3,H  16,Al  4,H  18)    166.0137         0.010000   
    413. D(Al  3,H  16,Al  4,H  17)    -11.8620         0.010000   
    414. D(Al  3,H  16,Al  4,H  15)    -98.7885         0.010000   
    415. D(Al  3,H  16,Al  4,H  14)     68.0056         0.010000   
    416. D(Al  3,H  16,Al  4,Al  5)    -77.9855         0.010000   
    417. D(Al  3,H  16,Al  4,Al  2)     30.4601         0.010000   
    418. D(Al  4,H  16,Al  3,H  26)     64.5860         0.010000   
    419. D(Al  4,H  16,Al  3,H  25)   -111.4181         0.010000   
    420. D(Al  4,H  16,Al  3,H  24)    -10.7182         0.010000   
    421. D(Al  4,H  16,Al  3,H  23)     74.0996         0.010000   
    422. D(Al  4,H  16,Al  3,H  22)    152.0384         0.010000   
    423. D(Al  4,H  16,Al  3,Al  6)    128.6960         0.010000   
    424. D(Al  4,H  16,Al  3,Al  5)     76.5736         0.010000   
    425. D(Al  4,H  16,Al  3,Al  2)    -27.3736         0.010000   
    426. D(Al  4,H  16,Al  3,Al  1)     -4.5144         0.010000   
    427. D(Al  2,H  17,Al  4,H  18)   -112.3085         0.010000   
    428. D(Al  2,H  17,Al  4,H  15)    149.3399         0.010000   
    429. D(Al  2,H  17,Al  4,H  14)    -16.5198         0.010000   
    430. D(Al  2,H  17,Al  4,Al  5)    122.8401         0.010000   
    431. D(Al  2,H  17,Al  4,Al  3)     59.7133         0.010000   
    432. D(Al  4,H  17,Al  2,H  24)    -88.5476         0.010000   
    433. D(Al  4,H  17,Al  2,H  14)     19.2921         0.010000   
    434. D(Al  4,H  17,Al  2,H  13)    145.9266         0.010000   
    435. D(Al  4,H  17,Al  2,H  12)    -44.3347         0.010000   
    436. D(Al  2,H  17,Al  4,H  16)     65.3728         0.010000   
    437. D(Al  4,H  17,Al  2,Al  3)    -60.9029         0.010000   
    438. D(Al  4,H  17,Al  2,Al  0)   -102.8760         0.010000   
    439. D(Al  5,H  19,Al  6,H  22)    -71.7163         0.010000   
    440. D(Al  5,H  19,Al  6,H  21)     39.5824         0.010000   
    441. D(Al  5,H  19,Al  6,H  20)    175.3813         0.010000   
    442. D(Al  5,H  19,Al  6,Al  3)    -51.7184         0.010000   
    443. D(Al  6,H  19,Al  5,H  27)    -96.2327         0.010000   
    444. D(Al  6,H  19,Al  5,H  26)     31.5610         0.010000   
    445. D(Al  6,H  19,Al  5,H  15)    139.7132         0.010000   
    446. D(Al  6,H  19,Al  5,Al  4)    107.1415         0.010000   
    447. D(Al  6,H  19,Al  5,Al  3)     50.7803         0.010000   
    448. D(Al  3,H  22,Al  6,H  21)    -52.4725         0.010000   
    449. D(Al  3,H  22,Al  6,H  20)    161.4401         0.010000   
    450. D(Al  3,H  22,Al  6,H  19)     53.6727         0.010000   
    451. D(Al  3,H  22,Al  6,Al  5)     23.3094         0.010000   
    452. D(Al  6,H  22,Al  3,H  26)     -0.5969         0.010000   
    453. D(Al  6,H  22,Al  3,H  25)   -176.3928         0.010000   
    454. D(Al  6,H  22,Al  3,H  24)     11.6870         0.010000   
    455. D(Al  6,H  22,Al  3,H  23)     79.3741         0.010000   
    456. D(Al  6,H  22,Al  3,H  16)    -82.3897         0.010000   
    457. D(Al  6,H  22,Al  3,Al  5)    -21.6950         0.010000   
    458. D(Al  6,H  22,Al  3,Al  4)    -69.5848         0.010000   
    459. D(Al  6,H  22,Al  3,Al  2)    -80.5645         0.010000   
    460. D(Al  6,H  22,Al  3,Al  1)     87.5225         0.010000   
    461. D(Al  1,H  23,Al  3,H  26)   -109.4491         0.010000   
    462. D(Al  1,H  23,Al  3,H  25)     66.6677         0.010000   
    463. D(Al  1,H  23,Al  3,H  24)    -32.6841         0.010000   
    464. D(Al  1,H  23,Al  3,H  22)    163.3073         0.010000   
    465. D(Al  1,H  23,Al  3,H  16)   -119.0102         0.010000   
    466. D(Al  1,H  23,Al  3,Al  6)   -173.5695         0.010000   
    467. D(Al  1,H  23,Al  3,Al  5)   -121.2086         0.010000   
    468. D(Al  1,H  23,Al  3,Al  4)    -72.3199         0.010000   
    469. D(Al  1,H  23,Al  3,Al  2)    -23.1338         0.010000   
    470. D(Al  3,H  23,Al  1,H  11)    -37.4381         0.010000   
    471. D(Al  3,H  23,Al  1,H  10)     76.1028         0.010000   
    472. D(Al  3,H  23,Al  1,H   9)   -144.9734         0.010000   
    473. D(Al  3,H  23,Al  1,Al  0)    -21.2358         0.010000   
    474. D(Al  2,H  24,Al  3,H  16)    -40.3160         0.010000   
    475. D(Al  2,H  24,Al  3,Al  6)   -126.2529         0.010000   
    476. D(Al  2,H  24,Al  3,Al  5)   -101.1229         0.010000   
    477. D(Al  2,H  24,Al  3,Al  4)    -45.4154         0.010000   
    478. D(Al  2,H  24,Al  3,Al  1)    142.4814         0.010000   
    479. D(Al  3,H  24,Al  2,H  17)     87.6205         0.010000   
    480. D(Al  3,H  24,Al  2,H  14)     12.3629         0.010000   
    481. D(Al  3,H  24,Al  2,H  13)    168.6559         0.010000   
    482. D(Al  3,H  24,Al  2,H  12)    -82.9057         0.010000   
    483. D(Al  3,H  24,Al  2,Al  4)     49.8394         0.010000   
    484. D(Al  2,H  24,Al  3,H  22)   -133.3847         0.010000   
    485. D(Al  3,H  24,Al  2,Al  0)    -98.8446         0.010000   
    486. D(Al  2,H  24,Al  3,H  26)   -120.7394         0.010000   
    487. D(Al  2,H  24,Al  3,H  25)     54.7728         0.010000   
    488. D(Al  2,H  24,Al  3,H  23)    158.3469         0.010000   
    489. D(Al  3,H  26,Al  5,H  27)    171.4336         0.010000   
    490. D(Al  3,H  26,Al  5,H  15)    -55.4634         0.010000   
    491. D(Al  3,H  26,Al  5,Al  6)     63.2937         0.010000   
    492. D(Al  3,H  26,Al  5,Al  4)    -51.4389         0.010000   
    493. D(Al  5,H  26,Al  3,H  25)     71.7486         0.010000   
    494. D(Al  5,H  26,Al  3,H  24)    123.0615         0.010000   
    495. D(Al  5,H  26,Al  3,H  23)   -149.9758         0.010000   
    496. D(Al  5,H  26,Al  3,H  22)    -60.6650         0.010000   
    497. D(Al  5,H  26,Al  3,H  16)     26.9455         0.010000   
    498. D(Al  5,H  26,Al  3,Al  6)    -60.9301         0.010000   
    499. D(Al  5,H  26,Al  3,Al  4)     51.9235         0.010000   
    500. D(Al  3,H  26,Al  5,H  19)     45.7993         0.010000   
    501. D(Al  5,H  26,Al  3,Al  2)    101.5159         0.010000   
    502. D(Al  5,H  26,Al  3,Al  1)   -175.0614         0.010000   
    -----------------------------------------------------------------

Number of atoms                         .... 28
Number of degrees of freedom            .... 502


         *************************************************************
         *                GEOMETRY OPTIMIZATION CYCLE   1            *
         *************************************************************
---------------------------------
CARTESIAN COORDINATES (ANGSTROEM)
---------------------------------
  Al     1.557377   -4.049685    0.608947
  Al     1.624427   -4.007173    3.806389
  Al     0.878389   -0.972874    1.136341
  Al    -0.852223   -2.225910    3.377581
  Al    -1.082086    0.600548    2.148504
  Al    -0.830180    0.405441    5.196395
  Al    -2.458849   -1.840276    6.059167
  H      0.737603   -5.113927   -0.240222
  H      3.138020   -3.865320    0.644982
  H      1.699783   -5.438515    4.495591
  H      2.753017   -2.886436    3.812228
  H      1.036186   -4.285570    2.225601
  H      0.842438   -2.534100    0.327061
  H      2.222265   -0.305282    0.642258
  H     -0.658642   -0.532843    0.657738
  H     -1.239905    1.324419    3.879911
  H     -1.767080   -0.770387    2.826262
  H      0.553113    0.631217    2.310326
  H     -1.995973    1.658246    1.409853
  H     -2.387666   -0.163099    5.574145
  H     -3.977216   -2.061140    6.462929
  H     -1.154747   -2.003975    6.963302
  H     -2.159143   -2.498470    4.544601
  H      0.167179   -3.276489    4.328846
  H      0.674584   -1.700333    2.625062
  H     -1.427087   -3.170217    2.229579
  H     -0.150065   -0.984303    4.599337
  H     -0.088159    1.154193    6.375017

----------------------------
CARTESIAN COORDINATES (A.U.)
----------------------------
  NO LB      ZA    FRAG     MASS         X           Y           Z
   0 Al   13.0000    0    26.982    2.943016   -7.652796    1.150744
   1 Al   13.0000    0    26.982    3.069722   -7.572460    7.193032
   2 Al   13.0000    0    26.982    1.659915   -1.838466    2.147373
   3 Al   13.0000    0    26.982   -1.610469   -4.206360    6.382702
   4 Al   13.0000    0    26.982   -2.044846    1.134871    4.060085
   5 Al   13.0000    0    26.982   -1.568814    0.766173    9.819764
   6 Al   13.0000    0    26.982   -4.646551   -3.477617   11.450167
   7 H     1.0000    0     1.008    1.393867   -9.663922   -0.453953
   8 H     1.0000    0     1.008    5.929999   -7.304396    1.218839
   9 H     1.0000    0     1.008    3.212125  -10.277304    8.495436
  10 H     1.0000    0     1.008    5.202449   -5.454573    7.204067
  11 H     1.0000    0     1.008    1.958109   -8.098554    4.205777
  12 H     1.0000    0     1.008    1.591977   -4.788754    0.618055
  13 H     1.0000    0     1.008    4.199471   -0.576898    1.213693
  14 H     1.0000    0     1.008   -1.244653   -1.006928    1.242944
  15 H     1.0000    0     1.008   -2.343080    2.502790    7.331969
  16 H     1.0000    0     1.008   -3.339298   -1.455821    5.340861
  17 H     1.0000    0     1.008    1.045233    1.192827    4.365883
  18 H     1.0000    0     1.008   -3.771842    3.133630    2.664235
  19 H     1.0000    0     1.008   -4.512035   -0.308213   10.533607
  20 H     1.0000    0     1.008   -7.515848   -3.894991   12.213166
  21 H     1.0000    0     1.008   -2.182156   -3.786965   13.158734
  22 H     1.0000    0     1.008   -4.080190   -4.721423    8.588051
  23 H     1.0000    0     1.008    0.315922   -6.191668    8.180334
  24 H     1.0000    0     1.008    1.274779   -3.213163    4.960649
  25 H     1.0000    0     1.008   -2.696804   -5.990841    4.213293
  26 H     1.0000    0     1.008   -0.283581   -1.860064    8.691487
  27 H     1.0000    0     1.008   -0.166596    2.181109   12.047036

--------------------------------
INTERNAL COORDINATES (ANGSTROEM)
--------------------------------
 Al     0   0   0     0.000000000000     0.00000000     0.00000000
 Al     1   0   0     3.198426743062     0.00000000     0.00000000
 Al     1   2   0     3.194672903173    80.01559642     0.00000000
 Al     2   1   3     3.080677448037    81.47054675    41.40929561
 Al     3   1   2     2.709906693161   140.77037410   291.83278885
 Al     5   3   1     3.064500013343   105.96477741    77.88092683
 Al     6   5   3     2.905198977719   107.36739098   270.90097766
 H      1   2   3     1.589254205622   123.63283150   229.96279759
 H      1   2   3     1.591767072711    87.42153277    96.04231779
 H      2   1   3     1.590414570743   114.97641494   169.75431245
 H      2   1   3     1.590535166704    91.59939568   302.13049690
 H      2   1   3     1.709508795144    20.96554462   102.19916231
 H      1   2   3     1.699293435257    99.36938034   347.65500388
 H      3   1   2     1.579809816302   100.05311826   109.23468666
 H      3   1   2     1.668877652068   113.72481542   245.61467490
 H      6   5   3     1.656962861068    32.23718426   148.39828918
 H      5   3   1     1.675719564628    88.38294380    14.36056420
 H      5   3   1     1.643472952627    47.76338706   137.18105700
 H      5   3   1     1.580987169091   129.20690740   245.86144519
 H      6   5   3     1.700498433357    99.60963742   237.77117656
 H      7   6   5     1.586582158928   136.02847854   272.72662108
 H      7   6   5     1.595285905504    77.83981452   138.64079559
 H      7   6   5     1.678378496677    86.27564812    28.31138115
 H      2   1   3     1.711851140665   107.03370596    51.07729633
 H      3   1   2     1.669438276423    75.72874471   345.93916331
 H      4   2   1     1.593766697420    92.73110093    42.48624122
 H      6   5   3     1.658440890555    74.27627914   335.65438209
 H      6   5   3     1.581257244296   138.56930520    90.68708046

---------------------------
INTERNAL COORDINATES (A.U.)
---------------------------
 Al     0   0   0     0.000000000000     0.00000000     0.00000000
 Al     1   0   0     6.044150603797     0.00000000     0.00000000
 Al     1   2   0     6.037056874455    80.01559642     0.00000000
 Al     2   1   3     5.821636683737    81.47054675    41.40929561
 Al     3   1   2     5.120981498555   140.77037410   291.83278885
 Al     5   3   1     5.791065762616   105.96477741    77.88092683
 Al     6   5   3     5.490030432438   107.36739098   270.90097766
 H      1   2   3     3.003255205808   123.63283150   229.96279759
 H      1   2   3     3.008003836418    87.42153277    96.04231779
 H      2   1   3     3.005447978101   114.97641494   169.75431245
 H      2   1   3     3.005675871441    91.59939568   302.13049690
 H      2   1   3     3.230503446352    20.96554462   102.19916231
 H      1   2   3     3.211199213807    99.36938034   347.65500388
 H      3   1   2     2.985407896492   100.05311826   109.23468666
 H      3   1   2     3.153721713430   113.72481542   245.61467490
 H      6   5   3     3.131206021497    32.23718426   148.39828918
 H      5   3   1     3.166651054400    88.38294380    14.36056420
 H      5   3   1     3.105713788972    47.76338706   137.18105700
 H      5   3   1     2.987632770826   129.20690740   245.86144519
 H      6   5   3     3.213476330207    99.60963742   237.77117656
 H      7   6   5     2.998205769339   136.02847854   272.72662108
 H      7   6   5     3.014653466708    77.83981452   138.64079559
 H      7   6   5     3.171675707782    86.27564812    28.31138115
 H      2   1   3     3.234929837897   107.03370596    51.07729633
 H      3   1   2     3.154781139925    75.72874471   345.93916331
 H      4   2   1     3.011782579487    92.73110093    42.48624122
 H      6   5   3     3.133999092444    74.27627914   335.65438209
 H      6   5   3     2.988143138999   138.56930520    90.68708046

---------------------
BASIS SET INFORMATION
---------------------
There are 2 groups of distinct atoms

 Group   1 Type Al  : 14s9p3d1f contracted to 5s5p2d1f pattern {73211/51111/21/1}
 Group   2 Type H   : 5s1p contracted to 3s1p pattern {311/1}

Atom   0Al   basis set group =>   1
Atom   1Al   basis set group =>   1
Atom   2Al   basis set group =>   1
Atom   3Al   basis set group =>   1
Atom   4Al   basis set group =>   1
Atom   5Al   basis set group =>   1
Atom   6Al   basis set group =>   1
Atom   7H    basis set group =>   2
Atom   8H    basis set group =>   2
Atom   9H    basis set group =>   2
Atom  10H    basis set group =>   2
Atom  11H    basis set group =>   2
Atom  12H    basis set group =>   2
Atom  13H    basis set group =>   2
Atom  14H    basis set group =>   2
Atom  15H    basis set group =>   2
Atom  16H    basis set group =>   2
Atom  17H    basis set group =>   2
Atom  18H    basis set group =>   2
Atom  19H    basis set group =>   2
Atom  20H    basis set group =>   2
Atom  21H    basis set group =>   2
Atom  22H    basis set group =>   2
Atom  23H    basis set group =>   2
Atom  24H    basis set group =>   2
Atom  25H    basis set group =>   2
Atom  26H    basis set group =>   2
Atom  27H    basis set group =>   2
---------------------------------
AUXILIARY/J BASIS SET INFORMATION
---------------------------------
There are 2 groups of distinct atoms

 Group   1 Type Al  : 14s5p5d2f1g contracted to 8s4p3d1f1g pattern {71111111/2111/311/2/1}
 Group   2 Type H   : 5s2p1d contracted to 3s1p1d pattern {311/2/1}

Atom   0Al   basis set group =>   1
Atom   1Al   basis set group =>   1
Atom   2Al   basis set group =>   1
Atom   3Al   basis set group =>   1
Atom   4Al   basis set group =>   1
Atom   5Al   basis set group =>   1
Atom   6Al   basis set group =>   1
Atom   7H    basis set group =>   2
Atom   8H    basis set group =>   2
Atom   9H    basis set group =>   2
Atom  10H    basis set group =>   2
Atom  11H    basis set group =>   2
Atom  12H    basis set group =>   2
Atom  13H    basis set group =>   2
Atom  14H    basis set group =>   2
Atom  15H    basis set group =>   2
Atom  16H    basis set group =>   2
Atom  17H    basis set group =>   2
Atom  18H    basis set group =>   2
Atom  19H    basis set group =>   2
Atom  20H    basis set group =>   2
Atom  21H    basis set group =>   2
Atom  22H    basis set group =>   2
Atom  23H    basis set group =>   2
Atom  24H    basis set group =>   2
Atom  25H    basis set group =>   2
Atom  26H    basis set group =>   2
Atom  27H    basis set group =>   2


           ************************************************************
           *        Program running with 24 parallel MPI-processes    *
           *              working on a common directory               *
           ************************************************************
------------------------------------------------------------------------------
                             ORCA STARTUP CALCULATIONS
                           -- RI-GTO INTEGRALS CHOSEN --
------------------------------------------------------------------------------
------------------------------------------------------------------------------
                   ___                                                        
                  /   \      - P O W E R E D   B Y -                         
                 /     \                                                     
                 |  |  |   _    _      __       _____    __    __             
                 |  |  |  | |  | |    /  \     |  _  \  |  |  /  |          
                  \  \/   | |  | |   /    \    | | | |  |  | /  /          
                 / \  \   | |__| |  /  /\  \   | |_| |  |  |/  /          
                |  |  |   |  __  | /  /__\  \  |    /   |      \           
                |  |  |   | |  | | |   __   |  |    \   |  |\   \          
                \     /   | |  | | |  |  |  |  | |\  \  |  | \   \       
                 \___/    |_|  |_| |__|  |__|  |_| \__\ |__|  \__/        
                                                                              
                      - O R C A' S   B I G   F R I E N D -                    
                                      &                                       
                       - I N T E G R A L  F E E D E R -                       
                                                                              
 v1 FN, 2020, v2 2021, v3 2022-2024                                           
------------------------------------------------------------------------------


----------------------
SHARK INTEGRAL PACKAGE
----------------------

Number of atoms                             ...     28
Number of basis functions                   ...    385
Number of shells                            ...    175
Maximum angular momentum                    ...      3
Integral batch strategy                     ... SHARK/LIBINT Hybrid
RI-J (if used) integral strategy            ... SPLIT-RIJ (Revised 2003 algorithm where possible)
Printlevel                                  ...      1
Contraction scheme used                     ... SEGMENTED contraction
Prescreening option                         ... SCHWARTZ
   Thresh                                   ... 2.500e-11
   Tcut                                     ... 2.500e-12
   Tpresel                                  ... 2.500e-12 
Coulomb Range Separation                    ... NOT USED
Exchange Range Separation                   ... NOT USED
Multipole approximations                    ... NOT USED
Finite Nucleus Model                        ... NOT USED
CABS basis                                  ... NOT available
Auxiliary Coulomb fitting basis             ... AVAILABLE
   # of basis functions in Aux-J            ...    588
   # of shells in Aux-J                     ...    224
   Maximum angular momentum in Aux-J        ...      4
Auxiliary J/K fitting basis                 ... NOT available
Auxiliary Correlation fitting basis         ... NOT available
Auxiliary 'external' fitting basis          ... NOT available

Checking pre-screening integrals            ... done (  0.0 sec) Dimension = 175
   => SHARK Basis and OBASIS are compatible. Storing Pre-screening
Shell pair information
Shell pair cut-off parameter TPreSel        ...   2.5e-12
Total number of shell pairs                 ...     15400
Shell pairs after pre-screening             ...     12468
Total number of primitive shell pairs       ...     50085
Primitive shell pairs kept                  ...     27723
          la=0 lb=0:   3944 shell pairs
          la=1 lb=0:   4126 shell pairs
          la=1 lb=1:   1109 shell pairs
          la=2 lb=0:   1297 shell pairs
          la=2 lb=1:    738 shell pairs
          la=2 lb=2:    105 shell pairs
          la=3 lb=0:    653 shell pairs
          la=3 lb=1:    370 shell pairs
          la=3 lb=2:     98 shell pairs
          la=3 lb=3:     28 shell pairs

Checking whether 4 symmetric matrices of dimension 385 fit in memory
:Max Core in MB      =   4096.00
 MB in use           =     18.75
 MB left             =   4077.25
 MB needed           =      2.27
 Data fit in memory  = YES
Calculating RI/J V-Matrix + Cholesky decomp.... done (  0.1 sec)
Calculating Nuclear repulsion               ... done (  0.0 sec) ENN=    815.304949688693 Eh

Diagonalization of the overlap matrix:
Smallest eigenvalue                        ... 3.165e-04
Time for diagonalization                   ...    0.084 sec
Threshold for overlap eigenvalues          ... 1.000e-07
Number of eigenvalues below threshold      ... 0
Time for construction of square roots      ...    0.039 sec
Total time needed                          ...    0.128 sec

-------------------
DFT GRID GENERATION
-------------------

General Integration Accuracy     IntAcc      ... 4.959
Radial Grid Type                 RadialGrid  ... OptM3 with GC (2021)
Angular Grid (max. ang.)         AngularGrid ... 6 (Lebedev-590)
Angular grid pruning method      GridPruning ... 4 (adaptive)
Weight generation scheme         WeightScheme... mBecke (2022)
Basis function cutoff            BFCut       ... 1.0000e-11
Integration weight cutoff        WCut        ... 1.0000e-14
Partially contracted basis set               ... off
Rotationally invariant grid construction     ... off
Angular grids for H and He will be reduced by one unit

Total number of grid points                  ...   291284
Total number of batches                      ...     4565
Average number of points per batch           ...       63
Average number of grid points per atom       ...    10403
Grids setup in   8.3 sec
Initializing property integral containers    ... done (  0.0 sec)

SHARK setup successfully completed in   9.3 seconds

Maximum memory used throughout the entire STARTUP-calculation: 66.3 MB


           ************************************************************
           *        Program running with 24 parallel MPI-processes    *
           *              working on a common directory               *
           ************************************************************
-------------------------------------------------------------------------------
                                 ORCA GUESS
                   Start orbitals & Density for SCF / CASSCF
-------------------------------------------------------------------------------

------------
SCF SETTINGS
------------
Hamiltonian:
 Density Functional     Method          .... DFT(GTOs)
 Exchange Functional    Exchange        .... PBE
   PBE kappa parameter   XKappa         ....  0.804000
   PBE mue parameter    XMuePBE         ....  0.219520
 Correlation Functional Correlation     .... PBE
   PBE beta parameter  CBetaPBE         ....  0.066725
 LDA part of GGA corr.  LDAOpt          .... PW91-LDA
 Gradients option       PostSCFGGA      .... off
   NL short-range parameter             ....  6.400000
 RI-approximation to the Coulomb term is turned on
   Number of AuxJ basis functions       .... 588


General Settings:
 Integral files         IntName         .... run
 Hartree-Fock type      HFTyp           .... RHF
 Total Charge           Charge          ....    0
 Multiplicity           Mult            ....    1
 Number of Electrons    NEL             ....  112
 Basis Dimension        Dim             ....  385
 Nuclear Repulsion      ENuc            ....    815.3049496887 Eh

Convergence Acceleration:
 AO-DIIS                CNVDIIS         .... on
   Start iteration      DIISMaxIt       ....    12
   Startup error        DIISStart       ....  0.200000
   # of expansion vecs  DIISMaxEq       ....     5
   Bias factor          DIISBfac        ....   1.050
   Max. coefficient     DIISMaxC        ....  10.000
 MO-DIIS                CNVKDIIS        .... off
 Trust-Rad. Augm. Hess. CNVTRAH         .... auto
   Auto Start mean grad. ratio tolernc. ....  1.125000
   Auto Start start iteration           ....    50
   Auto Start num. interpolation iter.  ....    10
   Max. Number of Micro iterations      ....    24
   Max. Number of Macro iterations      .... Maxiter - #DIIS iter
   Number of Davidson start vectors     ....     2
   Converg. threshold    (grad. norm)   ....   1.000e-05
   Grad. Scal. Fac. for Micro threshold ....   0.100
   Minimum threshold for Micro iter.    ....   1.000e-02
   NR start threshold (gradient norm)   ....   1.000e-04
   Initial trust radius                 ....   0.400
   Minimum AH scaling param. (alpha)    ....   1.000
   Maximum AH scaling param. (alpha)    .... 1000.000
   Quad. conv. algorithm                .... NR
   White noise on init. David. guess    .... on
   Maximum white noise                  ....   0.010
   Pseudo random numbers                .... off
   Inactive MOs                         .... canonical
   Orbital update algorithm             .... Taylor
   Preconditioner                       .... Diag
   Full preconditioner red. dimension   ....   250
 SOSCF                 CNVSOSCF           .... on
   Start iteration     SOSCFMaxIt         ....   150
   Startup grad/error  SOSCFStart         ....  0.003300
   Hessian update      SOSCFHessUp        .... L-BFGS
   Autom. constraints  SOSCFAutoConstrain .... off
 Level Shifting         CNVShift        .... on
   Level shift para.    LevelShift      ....    0.2500
   Turn off err/grad.   ShiftErr        ....    0.0010
 Zerner damping         CNVZerner       .... off
 Static damping         CNVDamp         .... on
   Fraction old density DampFac         ....    0.7000
   Max. Damping (<1)    DampMax         ....    0.9800
   Min. Damping (>=0)   DampMin         ....    0.0000
   Turn off err/grad.   DampErr         ....    0.1000

SCF Procedure:
 Maximum # iterations   MaxIter         ....   125
 SCF integral mode      SCFMode         .... Direct
   Integral package                     .... SHARK and LIBINT hybrid scheme
 Reset frequency        DirectResetFreq ....    20
 Integral Threshold     Thresh          ....  2.500e-11 Eh
 Primitive CutOff       TCut            ....  2.500e-12 Eh

Convergence Tolerance:
 Convergence Check Mode ConvCheckMode   .... Total+1el-Energy
 Convergence forced     ConvForced      .... 0
 Energy Change          TolE            ....  1.000e-08 Eh
 1-El. energy change                    ....  1.000e-05 Eh
 Orbital Gradient       TolG            ....  1.000e-05
 Orbital Rotation angle TolX            ....  1.000e-05
 DIIS Error             TolErr          ....  5.000e-07

------------------------------
INITIAL GUESS: MODEL POTENTIAL
------------------------------
Loading Hartree-Fock densities                     ... done
Calculating cut-offs                               ... done
Initializing the effective Hamiltonian             ... done
Setting up the integral package (SHARK)            ... done
Starting the Coulomb interaction                   ... done (   0.2 sec)
Making the grid                                    ... done (   0.3 sec)
Mapping shells                                     ... done
Starting the XC term evaluation                    ... done (   0.1 sec)
  promolecular density results
     # of electrons  =    111.977457383
     EX              =   -132.434944493
     EC              =     -3.927097978
     EX+EC           =   -136.362042471
Transforming the Hamiltonian                       ... done (   0.0 sec)
Diagonalizing the Hamiltonian                      ... done (   0.1 sec)
Back transforming the eigenvectors                 ... done (   0.0 sec)
Now organizing SCF variables                       ... done
                      ------------------
                      INITIAL GUESS DONE (   0.8 sec)
                      ------------------
             **** ENERGY FILE WAS UPDATED (run.en.tmp) ****
Finished Guess after   1.6 sec
Maximum memory used throughout the entire GUESS-calculation: 24.7 MB


           ************************************************************
           *        Program running with 24 parallel MPI-processes    *
           *              working on a common directory               *
           ************************************************************

-------------------------------------------------------------------------------------------
                                      ORCA LEAN-SCF
                              memory conserving SCF solver
-------------------------------------------------------------------------------------------

--------------------
CPCM SOLVATION MODEL
--------------------
CPCM parameters:
  Epsilon                                         ...       1.9578
  Refrac                                          ...       1.0000
  Rsolv                                           ...       1.3000
  Surface type                                    ... GAUSSIAN VDW
  Discretization scheme                           ... Constant charge density
    Threshold for H atoms                         ...       5.0000 (charges/Ang^2)
    Threshold for non-H atoms                     ...       5.0000 (charges/Ang^2)
  Epsilon function type                           ...         CPCM
Solvent:                                          ... CUSTOM
Radii:
  Scheme                                          ... Element-dependent radii
  Radius for Al used is    4.1725 Bohr (=   2.2080 Ang.)
  Radius for H  used is    2.4944 Bohr (=   1.3200 Ang.)
Calculating surface                               ...        done! (  0.0s)
Cavity surface points                             ...         2253
Cavity Volume                                     ...    1987.9627
Cavity Surface-area                               ...    1048.5792
Calculating surface distance matrix               ...        done! (  0.1s)
Performing Cholesky decomposition & store         ...        done! (  0.3s)
Overall time for CPCM initialization              ...                 0.4s

----------------------------------------D-I-I-S--------------------------------------------
Iteration    Energy (Eh)           Delta-E    RMSDP     MaxDP     DIISErr   Damp  Time(sec)
-------------------------------------------------------------------------------------------
               ***  Starting incremental Fock matrix formation  ***
    1    -1708.5430434212921682     0.00e+00  2.42e-03  1.79e-02  8.47e-02  0.700   2.1
    2    -1708.5683653313685681    -2.53e-02  2.27e-03  1.63e-02  5.81e-02  0.700   2.0
                               ***Turning on AO-DIIS***
    3    -1708.5848281686121481    -1.65e-02  1.43e-03  1.04e-02  3.54e-02  0.700   1.9
    4    -1708.5947871455728091    -9.96e-03  3.15e-03  2.30e-02  2.31e-02  0.000   1.8
                              *** Initializing SOSCF ***
---------------------------------------S-O-S-C-F--------------------------------------
Iteration    Energy (Eh)           Delta-E    RMSDP     MaxDP     MaxGrad    Time(sec)
--------------------------------------------------------------------------------------
    5    -1708.6148589136473674    -2.01e-02  2.33e-04  3.25e-03  1.59e-03     2.0
               *** Restarting incremental Fock matrix formation ***
    6    -1708.6149030850979216    -4.42e-05  1.45e-04  1.50e-03  2.28e-04     1.9
    7    -1708.6149071780741906    -4.09e-06  4.06e-05  1.07e-03  1.70e-04     1.6
    8    -1708.6149086881032417    -1.51e-06  1.87e-05  3.92e-04  3.68e-05     1.6
    9    -1708.6149087446756312    -5.66e-08  6.95e-06  1.86e-04  2.49e-05     1.6
   10    -1708.6149088019424198    -5.73e-08  3.38e-06  4.73e-05  4.53e-06     1.5
   11    -1708.6149088135553029    -1.16e-08  1.56e-06  2.77e-05  2.82e-06     1.5
   12    -1708.6149088064635180     7.09e-09  6.97e-07  1.16e-05  6.71e-07     1.5
                 **** Energy Check signals convergence ****

               *****************************************************
               *                     SUCCESS                       *
               *           SCF CONVERGED AFTER  12 CYCLES          *
               *****************************************************

             **** ENERGY FILE WAS UPDATED (run.en.tmp) ****

----------------
TOTAL SCF ENERGY
----------------

Total Energy       :      -1708.61490881888585 Eh          -46493.77537 eV

Components:
Nuclear Repulsion  :        815.30494968869277 Eh           22185.57557 eV
Electronic Energy  :      -2523.91273777018478 Eh          -68679.15718 eV
One Electron Energy:      -3997.61549633077993 Eh         -108780.64796 eV
Two Electron Energy:       1473.70275856059516 Eh           40101.49078 eV
CPCM Dielectric    :         -0.00712073739384 Eh              -0.19377 eV

Virial components:
Potential Energy   :      -3413.28637170235015 Eh          -92880.24411 eV
Kinetic Energy     :       1704.67146288346453 Eh           46386.46875 eV
Virial Ratio       :          2.00231331727039

DFT components:
N(Alpha)           :       56.000013836405 electrons
N(Beta)            :       56.000013836405 electrons
N(Total)           :      112.000027672810 electrons
E(X)               :     -133.440681461165 Eh       
E(C)               :       -3.860673063007 Eh       
E(XC)              :     -137.301354524172 Eh       

CPCM Solvation Model Properties:
Surface-charge          :         -0.08435063736604
Corrected charge        :         -0.00000000000000
Outlying charge corr.   :          0.00020315723965 Eh               0.00553 eV
Free-energy (cav+disp)  :  This term is not implemented in the current solvation scheme

---------------
SCF CONVERGENCE
---------------

  Last Energy change         ...   -7.0918e-09  Tolerance :   1.0000e-08
  Last MAX-Density change    ...    1.1566e-05  Tolerance :   1.0000e-07
  Last RMS-Density change    ...    6.9707e-07  Tolerance :   5.0000e-09
  Last DIIS Error            ...    1.5916e-03  Tolerance :   5.0000e-07
  Last Orbital Gradient      ...    6.7088e-07  Tolerance :   1.0000e-05
  Last Orbital Rotation      ...    1.2704e-06  Tolerance :   1.0000e-05


----------------
ORBITAL ENERGIES
----------------

  NO   OCC          E(Eh)            E(eV) 
   0   2.0000     -55.400912     -1507.5355 
   1   2.0000     -55.394202     -1507.3529 
   2   2.0000     -55.387336     -1507.1660 
   3   2.0000     -55.386483     -1507.1428 
   4   2.0000     -55.377884     -1506.9088 
   5   2.0000     -55.370159     -1506.6986 
   6   2.0000     -55.367990     -1506.6396 
   7   2.0000      -3.956064      -107.6500 
   8   2.0000      -3.953556      -107.5817 
   9   2.0000      -3.945564      -107.3642 
  10   2.0000      -3.945089      -107.3513 
  11   2.0000      -3.938409      -107.1696 
[...]
 15:    176.44   0.001205    6.09  0.002132  ( 0.032195  0.014537 -0.029727)
 16:    191.76   0.001720    8.69  0.002799  (-0.047301  0.023371 -0.003983)
 17:    210.21   0.000140    0.71  0.000208  (-0.008438 -0.011077 -0.003816)
 18:    248.21   0.000399    2.02  0.000502  (-0.006389 -0.019677 -0.008614)
 19:    260.16   0.000201    1.02  0.000241  (-0.013245  0.008037 -0.001016)
 20:    269.29   0.001140    5.76  0.001321  ( 0.009378 -0.010022  0.033653)
 21:    289.24   0.001050    5.30  0.001132  ( 0.029930  0.008573 -0.012772)
 22:    304.62   0.002525   12.76  0.002586  ( 0.045384 -0.007774 -0.021592)
 23:    318.25   0.004959   25.06  0.004863  ( 0.037304 -0.058151 -0.009473)
 24:    334.89   0.001759    8.89  0.001639  (-0.001284  0.025128 -0.031722)
 25:    359.67   0.008591   43.42  0.007454  ( 0.067515 -0.035188 -0.040713)
 26:    362.16   0.003366   17.01  0.002900  ( 0.033445 -0.042206  0.000372)
 27:    384.13   0.003806   19.23  0.003092  ( 0.001385  0.053953  0.013379)
 28:    400.04   0.001282    6.48  0.001000  ( 0.007308  0.023935 -0.019328)
 29:    419.55   0.012009   60.69  0.008932  ( 0.030707  0.003682 -0.089308)
 30:    435.38   0.002318   11.71  0.001661  (-0.006012  0.005997 -0.039863)
 31:    451.33   0.006701   33.87  0.004633  ( 0.040530 -0.004864 -0.054471)
 32:    473.73   0.004605   23.27  0.003033  (-0.013760  0.047348 -0.024536)
 33:    478.49   0.006094   30.80  0.003974  ( 0.013950 -0.037145  0.048988)
 34:    502.29   0.022476  113.58  0.013963  (-0.048062  0.094514  0.052160)
 35:    516.17   0.036964  186.80  0.022348  ( 0.026627 -0.105154 -0.102866)
 36:    534.38   0.015033   75.97  0.008779  ( 0.042156  0.070692 -0.044769)
 37:    546.19   0.034326  173.47  0.019612  (-0.106178  0.027012  0.087227)
 38:    577.57   0.031579  159.59  0.017062  ( 0.125912 -0.028698 -0.019619)
 39:    621.65   0.248933  1258.01  0.124962  (-0.189632  0.140823  0.263003)
 40:    637.48   0.203058  1026.17  0.099402  (-0.113936 -0.061880  0.287388)
 41:    661.13   0.256459  1296.04  0.121052  ( 0.124019 -0.324040  0.025880)
 42:    664.34   0.055321  279.57  0.025986  ( 0.086459 -0.032895  0.132019)
 43:    682.13   0.044861  226.71  0.020523  (-0.012071  0.113547 -0.086515)
 44:    694.78   0.008619   43.56  0.003871  (-0.053863  0.030253 -0.007412)
 45:    704.96   0.049719  251.26  0.022009  (-0.020681  0.132838  0.062733)
 46:    711.12   0.071269  360.17  0.031275  ( 0.055866  0.021159 -0.166453)
 47:    721.24   0.087868  444.05  0.038019  (-0.006702  0.132907  0.142511)
 48:    734.71   0.025524  128.99  0.010841  ( 0.050561  0.003429 -0.090955)
 49:    749.10   0.015305   77.34  0.006376  ( 0.010468 -0.048146  0.062833)
 50:    794.07   0.078971  399.09  0.031035  ( 0.075669  0.151386  0.048899)
 51:    829.97   0.007707   38.95  0.002898  ( 0.017646  0.015443 -0.048457)
 52:    884.15   0.079682  402.68  0.028124  ( 0.091310 -0.135853 -0.036479)
 53:    920.16   0.026078  131.79  0.008844  ( 0.075878  0.043714 -0.034289)
 54:    941.81   0.046972  237.38  0.015564  ( 0.120046  0.015974 -0.029966)
 55:    960.89   0.056794  287.01  0.018445  (-0.000985 -0.083871 -0.106814)
 56:    990.90   0.059854  302.48  0.018850  (-0.083908  0.004363 -0.108584)
 57:   1012.83   0.040230  203.31  0.012395  ( 0.087769  0.065357  0.020501)
 58:   1034.53   0.000934    4.72  0.000282  ( 0.016749 -0.001036 -0.000478)
 59:   1053.77   0.040487  204.60  0.011990  (-0.033670  0.011198  0.103589)
 60:   1063.09   0.021754  109.94  0.006386  (-0.025896 -0.015682  0.073955)
 61:   1115.39   0.013478   68.11  0.003771  ( 0.022696 -0.043821 -0.036546)
 62:   1184.60   0.044183  223.28  0.011639  ( 0.065748 -0.085376 -0.005237)
 63:   1591.01   0.044864  226.72  0.008800  ( 0.082090 -0.041342 -0.018756)
 64:   1613.82   0.044918  227.00  0.008686  ( 0.042798 -0.082504  0.006877)
 65:   1631.54   0.169670  857.44  0.032453  ( 0.134479 -0.034896 -0.114675)
 66:   1652.53   0.068643  346.89  0.012963  ( 0.098086 -0.055229 -0.017073)
 67:   1681.92   0.035738  180.60  0.006631  (-0.004072 -0.072311  0.037220)
 68:   1696.07   0.282010  1425.16  0.051887  ( 0.069032 -0.206673 -0.066397)
 69:   1731.18   0.217111  1097.19  0.039137  ( 0.047756  0.043040 -0.187092)
 70:   1743.16   0.130143  657.69  0.023298  ( 0.130786 -0.078674 -0.001970)
 71:   1777.81   0.182572  922.64  0.032047  ( 0.026412  0.102710 -0.144223)
 72:   1807.75   0.123327  623.24  0.021289  ( 0.044871  0.138687 -0.006465)
 73:   1827.24   0.202650  1024.11  0.034609  ( 0.009699  0.039014  0.181640)
 74:   1869.02   0.017534   88.61  0.002928  (-0.051707 -0.005664 -0.014894)
 75:   1879.60   0.018954   95.78  0.003147  ( 0.050263 -0.016531  0.018631)
 76:   1880.82   0.010023   50.65  0.001663  ( 0.020435 -0.030467  0.017808)
 77:   1882.59   0.016671   84.25  0.002763  ( 0.026189 -0.007404  0.044975)
 78:   1887.04   0.086041  434.82  0.014229  ( 0.071803  0.095192  0.003406)
 79:   1899.30   0.022759  115.02  0.003739  (-0.029808  0.003601  0.053272)
 80:   1900.66   0.026742  135.14  0.004391  ( 0.061673  0.012507  0.020753)
 81:   1915.27   0.036302  183.46  0.005915  ( 0.072562 -0.024274 -0.007775)
 82:   1918.99   0.022693  114.68  0.003690  ( 0.007365 -0.008472  0.059702)
 83:   1920.99   0.025360  128.16  0.004120  (-0.032585 -0.051336 -0.020554)

* The epsilon (eps) is given for a Dirac delta lineshape.
** The dipole moment derivative (T) already includes vibrational overlap.

The first frequency considered to be a vibration is 6
The total number of vibrations considered is 78


--------------------------
THERMOCHEMISTRY AT 298.15K
--------------------------

Temperature         ...   298.15 K
Pressure            ...     1.00 atm
Total Mass          ...   210.04 AMU
Quasi RRHO          ...     True
Cut-Off Frequency   ...     1.00 cm^-1

Throughout the following assumptions are being made:
  (1) The electronic state is orbitally nondegenerate
  (2) There are no thermally accessible electronically excited states
  (3) Hindered rotations indicated by low frequency modes are not
      treated as such but are treated as vibrations and this may
      cause some error
  (4) All equations used are the standard statistical mechanics
      equations for an ideal gas
  (5) All vibrations are strictly harmonic

freq.      31.94  E(vib)   ...       0.55 
freq.      52.45  E(vib)   ...       0.52 
freq.      59.89  E(vib)   ...       0.51 
freq.      74.77  E(vib)   ...       0.49 
freq.      96.35  E(vib)   ...       0.47 
freq.     119.99  E(vib)   ...       0.44 
freq.     130.03  E(vib)   ...       0.43 
freq.     134.62  E(vib)   ...       0.42 
freq.     162.12  E(vib)   ...       0.39 
freq.     176.44  E(vib)   ...       0.38 
freq.     191.76  E(vib)   ...       0.36 
freq.     210.21  E(vib)   ...       0.34 
freq.     248.21  E(vib)   ...       0.31 
freq.     260.16  E(vib)   ...       0.30 
freq.     269.29  E(vib)   ...       0.29 
freq.     289.24  E(vib)   ...       0.27 
freq.     304.62  E(vib)   ...       0.26 
freq.     318.25  E(vib)   ...       0.25 
freq.     334.89  E(vib)   ...       0.24 
freq.     359.67  E(vib)   ...       0.22 
freq.     362.16  E(vib)   ...       0.22 
freq.     384.13  E(vib)   ...       0.20 
freq.     400.04  E(vib)   ...       0.19 
freq.     419.55  E(vib)   ...       0.18 
freq.     435.38  E(vib)   ...       0.17 
freq.     451.33  E(vib)   ...       0.16 
freq.     473.73  E(vib)   ...       0.15 
freq.     478.49  E(vib)   ...       0.15 
freq.     502.29  E(vib)   ...       0.14 
freq.     516.17  E(vib)   ...       0.13 
freq.     534.38  E(vib)   ...       0.13 
freq.     546.19  E(vib)   ...       0.12 
freq.     577.57  E(vib)   ...       0.11 
freq.     621.65  E(vib)   ...       0.09 
freq.     637.48  E(vib)   ...       0.09 
freq.     661.13  E(vib)   ...       0.08 
freq.     664.34  E(vib)   ...       0.08 
freq.     682.13  E(vib)   ...       0.08 
freq.     694.78  E(vib)   ...       0.07 
freq.     704.96  E(vib)   ...       0.07 
freq.     711.12  E(vib)   ...       0.07 
freq.     721.24  E(vib)   ...       0.07 
freq.     734.71  E(vib)   ...       0.06 
freq.     749.10  E(vib)   ...       0.06 
freq.     794.07  E(vib)   ...       0.05 
freq.     829.97  E(vib)   ...       0.04 
freq.     884.15  E(vib)   ...       0.04 
freq.     920.16  E(vib)   ...       0.03 
freq.     941.81  E(vib)   ...       0.03 
freq.     960.89  E(vib)   ...       0.03 
freq.     990.90  E(vib)   ...       0.02 
freq.    1012.83  E(vib)   ...       0.02 
freq.    1034.53  E(vib)   ...       0.02 
freq.    1053.77  E(vib)   ...       0.02 
freq.    1063.09  E(vib)   ...       0.02 
freq.    1115.39  E(vib)   ...       0.01 
freq.    1184.60  E(vib)   ...       0.01 
freq.    1591.01  E(vib)   ...       0.00 
freq.    1613.82  E(vib)   ...       0.00 
freq.    1631.54  E(vib)   ...       0.00 
freq.    1652.53  E(vib)   ...       0.00 
freq.    1681.92  E(vib)   ...       0.00 
freq.    1696.07  E(vib)   ...       0.00 
freq.    1731.18  E(vib)   ...       0.00 
freq.    1743.16  E(vib)   ...       0.00 
freq.    1777.81  E(vib)   ...       0.00 
freq.    1807.75  E(vib)   ...       0.00 
freq.    1827.24  E(vib)   ...       0.00 
freq.    1869.02  E(vib)   ...       0.00 
freq.    1879.60  E(vib)   ...       0.00 
freq.    1880.82  E(vib)   ...       0.00 
freq.    1882.59  E(vib)   ...       0.00 
freq.    1887.04  E(vib)   ...       0.00 
freq.    1899.30  E(vib)   ...       0.00 
freq.    1900.66  E(vib)   ...       0.00 
freq.    1915.27  E(vib)   ...       0.00 
freq.    1918.99  E(vib)   ...       0.00 
freq.    1920.99  E(vib)   ...       0.00 

------------
INNER ENERGY
------------

The inner energy is: U= E(el) + E(ZPE) + E(vib) + E(rot) + E(trans)
    E(el)   - is the total energy from the electronic structure calculation
              = E(kin-el) + E(nuc-el) + E(el-el) + E(nuc-nuc)
    E(ZPE)  - the the zero temperature vibrational energy from the frequency calculation
    E(vib)  - the the finite temperature correction to E(ZPE) due to population
              of excited vibrational states
    E(rot)  - is the rotational thermal energy
    E(trans)- is the translational thermal energy

Summary of contributions to the inner energy U:
Electronic energy                ...  -1708.64849400 Eh
Zero point energy                ...      0.15487769 Eh      97.19 kcal/mol
Thermal vibrational correction   ...      0.01700645 Eh      10.67 kcal/mol
Thermal rotational correction    ...      0.00141627 Eh       0.89 kcal/mol
Thermal translational correction ...      0.00141627 Eh       0.89 kcal/mol
-----------------------------------------------------------------------
Total thermal energy                  -1708.47377731 Eh


Summary of corrections to the electronic energy:
(perhaps to be used in another calculation)
Total thermal correction                  0.01983900 Eh      12.45 kcal/mol
Non-thermal (ZPE) correction              0.15487769 Eh      97.19 kcal/mol
-----------------------------------------------------------------------
Total correction                          0.17471669 Eh     109.64 kcal/mol


--------
ENTHALPY
--------

The enthalpy is H = U + kB*T
                kB is Boltzmann's constant
Total thermal energy              ...  -1708.47377731 Eh 
Thermal Enthalpy correction       ...      0.00094421 Eh       0.59 kcal/mol
-----------------------------------------------------------------------
Total Enthalpy                    ...  -1708.47283310 Eh


Note: Only C1 symmetry has been detected, increase convergence thresholds 
      if your molecule has a higher symmetry. Symmetry factor of 1.0 is   
      used for the rotational entropy correction. 
 

Note: Rotational entropy computed according to Herzberg 
Infrared and Raman Spectra, Chapter V,1, Van Nostrand Reinhold, 1945 
Point Group:  C1, Symmetry Number:   1  
Rotational constants in cm-1:     0.024052     0.012921     0.009619 

Vibrational entropy computed according to the QRRHO of S. Grimme
Chem.Eur.J. 2012 18 9955 using a reference frequency of 100.0 cm-1


-------
ENTROPY
-------

The entropy contributions are T*S = T*(S(el)+S(vib)+S(rot)+S(trans))
     S(el)   - electronic entropy
     S(vib)  - vibrational entropy
     S(rot)  - rotational entropy
     S(trans)- translational entropy
The entropies will be listed as multiplied by the temperature to get
units of energy

Electronic entropy                ...      0.00000000 Eh      0.00 kcal/mol
Vibrational entropy               ...      0.02944395 Eh     18.48 kcal/mol
Rotational entropy                ...      0.01551601 Eh      9.74 kcal/mol
Translational entropy             ...      0.01992231 Eh     12.50 kcal/mol
-----------------------------------------------------------------------
Final entropy term                ...      0.06488227 Eh     40.71 kcal/mol

In case the symmetry of your molecule has not been determined correctly
or in case you have a reason to use a different symmetry number we print 
out the resulting rotational entropy values for sn=1,12:

 non-linear molecules -----------------------------------
|  sn= 1 | S(rot)=       0.01551601 Eh      9.74 kcal/mol|
|  sn= 2 | S(rot)=       0.01486155 Eh      9.33 kcal/mol|
|  sn= 3 | S(rot)=       0.01447872 Eh      9.09 kcal/mol|
|  sn= 4 | S(rot)=       0.01420710 Eh      8.92 kcal/mol|
|  sn= 5 | S(rot)=       0.01399641 Eh      8.78 kcal/mol|
|  sn= 6 | S(rot)=       0.01382427 Eh      8.67 kcal/mol|
|  sn= 7 | S(rot)=       0.01367872 Eh      8.58 kcal/mol|
|  sn= 8 | S(rot)=       0.01355264 Eh      8.50 kcal/mol|
|  sn= 9 | S(rot)=       0.01344143 Eh      8.43 kcal/mol|
|  sn=10 | S(rot)=       0.01334195 Eh      8.37 kcal/mol|
|  sn=11 | S(rot)=       0.01325196 Eh      8.32 kcal/mol|
|  sn=12 | S(rot)=       0.01316981 Eh      8.26 kcal/mol|
 linear molecules ---------------------------------------
|  Dinfh | S(rot)=       0.00971061 Eh      6.09 kcal/mol|
|  Cinfv | S(rot)=       0.01036507 Eh      6.50 kcal/mol|
 --------------------------------------------------------


-------------------
GIBBS FREE ENERGY
-------------------

The Gibbs free energy is G = H - T*S

Total enthalpy                    ...  -1708.47283310 Eh 
Total entropy correction          ...     -0.06488227 Eh    -40.71 kcal/mol
-----------------------------------------------------------------------
Final Gibbs free energy         ...  -1708.53771537 Eh

For completeness - the Gibbs free energy minus the electronic energy
G-E(el)                           ...      0.11077863 Eh     69.51 kcal/mol


Maximum memory used throughout the entire PROP-calculation: 59.0 MB

--------------------------------
SUGGESTED CITATIONS FOR THIS RUN
--------------------------------

Below you find a list of papers that are relevant to this ORCA run
We neither can nor want to force you to cite these papers, but we appreciate if you do
You receive ORCA, which is the product of decades of hard work by many enthusiastic individuals, for free
The only thing we kindly ask in return is that you cite our papers,
We deeply appreciate it, if you show your appreciation for ORCA by not just citing the generic ORCA reference.

Please note that relegating all ORCA citations to the supporting information does *not* help us.
SI sections are not indexed - citations you put there will not count into any citation statistics
But we need these citations in order to attract the funding resources that allow us to do what we are doing

Therefore, if you are a happy ORCA user, please consider citing a few of the papers listed below in the main body of your paper

In addition to the list printed below, the program has created the file run.bibtex that contains the list in bibtex format
You can import this file easily into all common literature databanks and citation aid programs


List of essential papers. We consider these as the minimum necessary citations

  1. Neese, F.
     Software update: the ORCA program system, version 6.0
     WIRES Comput. Molec. Sci. 2025 15(1), e70019
     doi.org/10.1002/wcms.7019

List of papers to cite with high priority. The work reported in these papers was absolutely
necessary for this run to complete.
Our perspective: the developers of density functionals and basis sets usually get cited in chemistry papers
Good! But without the algorithms to do something with them, the functionals or basis sets would not do anything.
Hence, in our opinion, the algorithm design and method developments papers are equally worthy of getting cited

  1. Neese, F.
     An improvement of the resolution of the identity approximation for the formation of the Coulomb matrix
     J. Comp. Chem. 2003 24(14), 1740-1747
     doi.org/10.1002/jcc.10318
  2. Grimme, S.; Antony, J.; Ehrlich, S.; Krieg, H.
     A consistent and accurate ab initio parametrization of density functional dispersion correction (DFT-D) for the 94 elements H-Pu
     J. Chem. Phys. 2010 132 , 154104
     doi.org/10.1063/1.3382344
  3. Grimme, S.; Ehrlich, S.; Goerigk, L.
     Effect of the damping function in dispersion corrected density functional theory
     J. Comput. Chem. 2011 32(7), 1456-1465
     doi.org/10.1002/jcc.21759
  4. Bykov, D.; Petrenko, T.; Izsak, R.; Kossmann, S.; Becker, U.; Valeev, E.; Neese, F.
     Efficient implementation of the analytic second derivatives of Hartree-Fock and hybrid DFT energies: a detailed analysis of different approximations
     Molec. Phys. 2015 113 , 1961-1977
     doi.org/10.1080/00268976.2015.1025114
  5. Garcia-Rates, M.; Neese, F.
     Efficient implementation of the analytical second derivatives of hartree-fock and hybrid DFT energies within the framework of the conductor-like polarizable continuum model
     J. Comput. Chem. 2019 40 , 1816-1828
     doi.org/10.1002/jcc.25833
  6. Garcia-Rates, M.; Neese, F.
     Effect of the Solute Cavity on the Solvation Energy and its Derivatives within the Framework of the Gaussian Charge Scheme
     J. Comput. Chem. 2020 41 , 922-939
     doi.org/10.1002/jcc.26139
  7. Neese, F.
     The SHARK Integral Generation and Digestion System
     J. Comp. Chem. 2022 44(3), 381
     doi.org/10.1002/jcc.26942

List of suggested additional citations. These are papers that are important in the 'surrounding' of 
of this run, or papers that preceded the highly important papers. If you like your results we are grateful for a citation.

  1. Neese, F.
     The ORCA program system
     WIRES Comput. Molec. Sci. 2012 2(1), 73-78
     doi.org/10.1002/wcms.81
  2. Neese, F.
     Software update: the ORCA program system, version 4.0
     WIRES Comput. Molec. Sci. 2018 8(1), 1-6
     doi.org/10.1002/wcms.1327
  3. Neese, F.; Wennmohs, F.; Becker, U.; Riplinger, C.
     The ORCA quantum chemistry program package
     J. Chem. Phys. 2020 152(22), 224108
     doi.org/10.1063/5.0004608
  4. Neese, F.
     Software update: The ORCA program system—Version 5.0
     WIRES Comput. Molec. Sci. 2022 12(1), e1606
     doi.org/10.1002/wcms.1606

List of optional additional citations

  1. Neese, F.
     Approximate second-order SCF convergence for spin unrestricted wavefunctions
     Chem. Phys. Lett. 2000 325(1-3), 93-98
     doi.org/10.1016/s0009-2614(00)00662-x

Timings for individual modules:

Sum of individual times          ...     1234.809 sec (=  20.580 min)
Startup calculation              ...      223.298 sec (=   3.722 min)  18.1 %
SCF iterations                   ...      286.893 sec (=   4.782 min)  23.2 %
Property integrals               ...      231.063 sec (=   3.851 min)  18.7 %
SCF Response                     ...      162.863 sec (=   2.714 min)  13.2 %
Property calculations            ...       97.306 sec (=   1.622 min)   7.9 %
SCF Gradient evaluation          ...      229.291 sec (=   3.822 min)  18.6 %
Geometry relaxation              ...        4.095 sec (=   0.068 min)   0.3 %
                             ****ORCA TERMINATED NORMALLY****
TOTAL RUN TIME: 0 days 0 hours 20 minutes 56 seconds 108 msec
