
                                 *****************
                                 * O   R   C   A *
                                 *****************

                                            #,                                       
                                            ###                                      
                                            ####                                     
                                            #####                                    
                                            ######                                   
                                           ########,                                 
                                     ,,################,,,,,                         
                               ,,#################################,,                 
                          ,,##########################################,,             
                       ,#########################################, ''#####,          
                    ,#############################################,,   '####,        
                  ,##################################################,,,,####,       
                ,###########''''           ''''###############################       
              ,#####''   ,,,,##########,,,,          '''####'''          '####       
            ,##' ,,,,###########################,,,                        '##       
           ' ,,###''''                  '''############,,,                           
         ,,##''                                '''############,,,,        ,,,,,,###''
      ,#''                                            '''#######################'''  
     '                                                          ''''####''''         
             ,#######,   #######,   ,#######,      ##                                
            ,#'     '#,  ##    ##  ,#'     '#,    #''#        ,####,    ,#,          
            ##       ##  ##   ,#'  ##            #'  '#       #'       ,# #          
            ##       ##  #######   ##           ,######,      #####,      #          
            '#,     ,#'  ##    ##  '#,     ,#' ,#      #,     #,   #      #          
             '#######'   ##     ##  '#######'  #'      '#     '####' #    #          



                #########################################################
                #                        -***-                          #
                #          Department of theory and spectroscopy        #
                #                                                       #
                #                      Frank Neese                      #
                #                                                       #
                #     Directorship, Architecture, Infrastructure        #
                #                    SHARK, DRIVERS                     #
                #        Core code/Algorithms in most modules           #
                #                                                       #
                #        Max Planck Institute fuer Kohlenforschung      #
                #                Kaiser Wilhelm Platz 1                 #
                #                 D-45470 Muelheim/Ruhr                 #
                #                      Germany                          #
                #                                                       #
                #                  All rights reserved                  #
                #                        -***-                          #
                #########################################################


                         Program Version 6.1.0  -  RELEASE   -
                                (GIT: $679e74b$)
                          ($2025-06-10 18:02:51 +0200$)


 With contributions from (in alphabetic order):
[Max-Planck-Institut fuer Kohlenforschung]                               
  Daniel Aravena         : Magnetic Suceptibility                        
  Michael Atanasov       : Ab Initio Ligand Field Theory (pilot matlab implementation)
  Alexander A. Auer      : GIAO ZORA, VPT2 properties, NMR spectrum      
  Ute Becker             : All parallelization in ORCA, NUMFREQ, NUMCALC 
  Giovanni Bistoni       : ED, misc. LED, open-shell LED, HFLD           
  Dmytro Bykov           : pre 5.0 version of the SCF Hessian            
  Marcos Casanova-Páez   : Triplet and SCS-CIS(D). UHF-(DLPNO)-IP/EA/STEOM-CCSD. UHF-CVS-IP/STEOM-CCSD   
  Vijay G. Chilkuri      : MRCI spin determinant printing, contributions to CSF-ICE 
  Pauline Colinet        : FMM embedding                                 
  Dipayan Datta          : RHF DLPNO-CCSD density                        
  Achintya Kumar Dutta   : EOM-CC, STEOM-CC                              
  Nicolas Foglia         : Exact transition moments, OPA infrastructure, MCD improvements    
  Dmitry Ganyushin       : Spin-Orbit,Spin-Spin,Magnetic field MRCI      
  Miquel Garcia-Rates    : C-PCM and meta-GGA Hessian, CCSD/C-PCM, Gaussian charge scheme 
  Tiago L. C. Gouveia    : GS-ROHF, GS-ROCIS                             
  Yang Guo               : DLPNO-NEVPT2, F12-NEVPT2, CIM, IAO-localization        
  Andreas Hansen         : Spin unrestricted coupled pair/coupled cluster methods 
  Ingolf Harden          : AUTO-CI MPn and infrastructure                
  Benjamin Helmich-Paris : MC-RPA, TRAH-(SCF,CASSCF), AVAS, COSX integrals, SCF dyn. polar., MC-PDFT, srDFT 
  Lee Huntington         : MR-EOM, pCC                                   
  Robert Izsak           : Overlap fitted RIJCOSX, COSX-SCS-MP3, EOM     
  Riya Kayal             : Wick's Theorem for AUTO-CI, AUTO-CI UHF-CCSDT 
  Emily Kempfer          : AUTO-CI RHF CISDT and CCSDT, approximate NEVPT4
  Christian Kollmar      : KDIIS, OOCD, Brueckner-CCSD(T), CCSD density, CASPT2, CASPT2-K, improved NEVPT2 
  Axel Koslowski         : Symmetry handling                             
  Simone Kossmann        : meta-GGA functionals, TD-DFT gradient, OOMP2, (MP2 Hessian; deprecated post 5.0) 
  Lucas Lang             : DCDCAS, Hyperfine gauge corrections, ICE-SOC+SSC
  Marvin Lechner         : AUTO-CI (C++ implementation), FIC-MRCC        
  Spencer Leger          : CASSCF response                               
  Dagmar Lenk            : GEPOL surface, SMD, ORCA-2-JSON               
  Dimitrios Liakos       : Extrapolation schemes; Compound Job, Property file
  Dimitrios Manganas     : Further ROCIS development; embedding schemes. LFT, Crystal Embedding 
  Dimitrios Pantazis     : SARC Basis sets                               
  Anastasios Papadopoulos: AUTO-CI, single reference methods and gradients 
  Taras Petrenko         : pre 6.0 DFT Hessian and TD-DFT gradient,  ECA, NRVS 
  Petra Pikulova         : Analytic Raman intensities                    
  Peter Pinski           : DLPNO-MP2, DLPNO-MP2 Gradient                 
  Shashank Vittal Rao    : ES-AILFT, MagRelax                            
  Christoph Reimann      : Effective Core Potentials                     
  Marius Retegan         : Local ZFS, SOC                                
  Christoph Riplinger    : Optimizer, TS searches, QM/MM, DLPNO-CCSD(T), (RO)-DLPNO pert. Triples 
  Michael Roemelt        : Original ROCIS implementation, recursive CI coupling coefficients
  Masaaki Saitow         : Open-shell DLPNO-CCSD energy and density      
  Barbara Sandhoefer     : DKH picture change effects                    
  Yorick L. A. Schmerwitz: GMF and freeze-and-release deltaSCF, NEB S-IDPP initial path                    
  Kantharuban Sivalingam : CASSCF convergence/infrastructure, NEVPT2, NEVPT3, NEVPT4(SD), FIC-MRCI and CEPA variants
  Bernardo de Souza      : ESD, SOC TD-DFT                               
  Georgi L. Stoychev     : AutoAux, RI-MP2 NMR, DLPNO-MP2 response, X2C  
  Van Anh Tran           : RI-MP2 g-tensors                              
  Willem Van den Heuvel  : Paramagnetic NMR                              
  Zikuan Wang            : NOTCH, Electric field optimization            
  Frank Wennmohs         : Technical directorship and infrastructure     
  Hang Xu                : AUTO-CI-Response properties                   
                                                                         
[FACCTs GmbH]                                                            
  Markus Bursch, Nicolas Foglia, Miquel Garcia-Rates, Ingolf Harden, Hagen Neugebauer, Anastasios Papadopoulos, 
  Christoph Riplinger, Bernardo de Souza, Georgi L. Stoychev                                                    
                                                                 
  APM, various basis sets, CI-OPT, improved COSX, DLPNO-Multilevel,           
  DOCKER, DRACO, updates on ESD, Fragmentator, GOAT, IRC, LR-CPCM, L-BFGS, MBIS, meta-GGA TD-DFT gradient, ML-optimized integration grids, 
  MM, NACMEs, nearIR, NEB, NEB-TS, NL-DFT gradient (VV10), 2- and 3-layer-ONIOM, interface openCOSMO-RS, QMMM,   
  Crystal-QMMM, RESP, rigid body optimization, SF, symmetry and pop. for TD-DFT, various functionals, SOLVATOR                                   
                                                                         
[Other institutions]                                                     
  V. Asgeirsson          : NEB                                           
  Christoph Bannwarth    : sTDA-DFT, sTD-DFT, PBEh-3c, B97-3c, D3        
  Giovanni Bistoni       : ETS/NOCV, ADLD/ADEX, COVALED                  
  Martin Brehm           : Molecular dynamics                            
  Ronald Cardenas        : ETS/NOCV                                      
  Martina Colucci        : COVALED                                       
  Sebastian Ehlert       : rSCAN, r2SCAN, r2SCAN-3c, D4, dhf basis sets  
  Marvin Friede          : D4 for Fr, Ra, Ac-Lr                          
  Lars Goerigk           : TD-DFT with DH, B97 family of functionals     
  Stefan Grimme          : VdW corrections, initial TS optimization, DFT functionals, gCP, sTDA/sTD-DF 
  Waldemar Hujo          : DFT-NL                                        
  H. Jonsson             : NEB                                           
  Holger Kruse           : gCP                                           
  Marcel Mueller         : wB97X-3c, vDZP basis set                      
  Hagen Neugebauer       : wr2SCAN, Native XTB                           
  Gianluca Regni         : ADLD/ADEX                                     
  Tobias Risthaus        : pre 6.0 range-separated hybrid DFT and stability analysis
  Lukas Wittmann         : regularized MP2, r2SCAN double-hybrids, wr2SCAN        
                                                                         
We gratefully acknowledge several colleagues who have allowed us to      
interface, adapt or use parts of their codes:                            
  Ed Valeev, F. Pavosevic, A. Kumar             : LibInt (2-el integral package), F12 methods 
  Garnet Chan, S. Sharma, J. Yang, R. Olivares  : DMRG                   
  Ulf Ekstrom                                   : XCFun DFT Library      
  Mihaly Kallay                                 : mrcc  (arbitrary order and MRCC methods)
  Frank Weinhold                                : gennbo (NPA and NBO analysis)           
  Simon Mueller                                 : openCOSMO-RS                            
  Christopher J. Cramer and Donald G. Truhlar   : smd solvation model                     
  S Lehtola, MJT Oliveira, MAL Marques          : LibXC Library                           
  Liviu Ungur et al                             : ANISO software                          


 Your calculation uses the libint2 library for the computation of 2-el integrals
 For citations please refer to: http://libint.valeyev.net

 Your ORCA version has been built with support for libXC version: 7.0.0
 For citations please refer to: https://libxc.gitlab.io

 This ORCA versions uses:
   CBLAS   interface :  Fast vector & matrix operations
   LAPACKE interface :  Fast linear algebra routines
   SCALAPACK package :  Parallel linear algebra routines
   Shared memory     :  Shared parallel matrices
   BLAS/LAPACK       :  OpenBLAS 0.3.29  USE64BITINT DYNAMIC_ARCH NO_AFFINITY Bulldozer SINGLE_THREADED
        Core in use  :  Bulldozer
   Copyright (c) 2011-2014, The OpenBLAS Project


  ***********************************
  * Starting time: Fri Aug  8 15:33:50 2025
  * Host name:     chromium07
  * Process ID:    124949
  * Working dir.:  /local/scratch/mehlhorn/61782
  ***********************************



***************************************
The coordinates will be read from file: start.xyz
***************************************


Your calculation utilizes the geometrical counterpoise correction gCP
Please cite in your paper:
H.Kruse, S. Grimme J.Chem.Phys., 136, (2012), 154101 
   

Your calculation utilizes the atom-pairwise dispersion correction
with the Becke-Johnson damping scheme (D3BJ)


Warning: RI is on but no J-basis has been assigned. Assigning Def2/J (nothing to worry about!)
================================================================================

cite the ECPs for Zr [Def2-ECP] as follows:
Ce-Yb(ecp-28): M. Dolg, H. Stoll, H.Preuss, J. Chem. Phys., 1989, 90, 1730-1734.
Y-Cd(ecp-28), Hf-Hg(ecp-46): D. Andrae,U. Haeussermann, M. Dolg, H. Stoll, H. Preuss, Theor. Chim. Acta, 1990, 77, 123-141.
In-Sb(ecp-28), Tl-Bi(ecp-46): B. Metz, H. Stoll, M. Dolg, J. Chem. Phys., 2000, 113, 2563-2569.
Te-Xe(ecp-28), Po-Rn(ecp-46): K. A. Peterson, D. Figgen, E. Goll, H. Stoll, M. Dolg, J. Chem. Phys., 2003, 119, 11113-11123.
Rb(ecp-28), Cs(ecp-46): T. Leininger, A. Nicklass, W. Kuechle, H. Stoll, M. Dolg, A. Bergner, Chem. Phys. Lett., 1996, 255, 274-280.
Sr(ecp-28), Ba(ecp-46): M. Kaupp, P. V. Schleyer, H. Stoll and H. Preuss, J. Chem. Phys., 1991, 94, 1360-1366.
La(ecp-46): M. Dolg, H. Stoll, A. Savin, H. Preuss, Theor. Chim. Acta, 1989, 75, 173-194.
Lu(ecp-28): X. Cao, M. Dolg, J. Chem. Phys., 2001, 115, 7348-7355.

ECP parameters for Zr [Def2-ECP] have been obtained from:
TURBOMOLE (7.0.2)

----- Orbital basis set information -----
Your calculation utilizes the basis: def2-SV(P)
   F. Weigend and R. Ahlrichs, Phys. Chem. Chem. Phys. 7, 3297 (2005).

----- AuxJ basis set information -----
Your calculation utilizes the auxiliary basis: def2/J
   H-Rn: F. Weigend, Phys. Chem. Chem. Phys. 8, 1057 (2006).
   Fr-Lr: K. Eichkorn, F. Weigend, O. Treutler, R. Ahlrichs; Theor. Chem. Acc. 97, 119 (1997).

================================================================================
                                        WARNINGS
                       Please study these warnings very carefully!
================================================================================


WARNING: Gradients are needed
  ===> : At least TightSCF should be used for SCF convergence

WARNING: Geometry Optimization
  ===> : Switching off AutoStart
         For restart on a previous wavefunction, please use MOREAD

================================================================================
                                       INPUT FILE
================================================================================
NAME = run.inp
|  1> # Geometry optimization for (AlH3)n cluster
|  2> 
|  3> %pal nprocs 24  end
|  4> 
|  5> %geom MaxIter 500 end
|  6> 
|  7> 
|  8> ! PBE def2-SV(P)
|  9> ! RKS	# closed shell for AlH3
| 10> ! D3    #  dispersion correction
| 11> ! gCP(DFT/SV(P))
| 12> ! Freq 	# Frequency analysis to check the stabiltity of the structures
| 13> 
| 14> ! NoPop # population analysis not necessary	
| 15> 
| 16> ! DEFGRID2
| 17> ! NormalSCF
| 18> ! SloppyOpt
| 19> 
| 20> ! SmallPrint
| 21> 
| 22> 
| 23> * xyzFile 0 1 start.xyz # only maingroup elements H and Al so there should be no net spin
| 24> 
| 25>                          ****END OF INPUT****
================================================================================

                       *****************************
                       * Geometry Optimization Run *
                       *****************************

Geometry optimization settings:
Update method            Update   .... BFGS
Choice of coordinates    CoordSys .... (2022) Redundant Internals
Initial Hessian          InHess   .... Almloef's Model
Max. no of cycles        MaxIter  .... 500

Convergence Tolerances:
Energy Change            TolE     ....  8.0000e-05 Eh
Max. Gradient            TolMAXG  ....  5.0000e-03 Eh/bohr
RMS Gradient             TolRMSG  ....  1.0000e-03 Eh/bohr
Max. Displacement        TolMAXD  ....  3.0000e-02 bohr
RMS Displacement         TolRMSD  ....  2.0000e-02 bohr
Strict Convergence                .... False

------------------------------------------------------------------------------
                        ORCA OPTIMIZATION COORDINATE SETUP
------------------------------------------------------------------------------

The optimization will be done in redundant internal coordinates (2022)
Making redundant internal coordinates   ...  (2022 redundants) done
Evaluating the initial hessian          ...  (Almloef) done
Evaluating the coordinates              ...  done
Calculating the B-matrix                .... done
Calculating the G-matrix                .... done
The number of degrees of freedom        ....  704

    -----------------------------------------------------------------
                    Redundant Internal Coordinates


    -----------------------------------------------------------------
         Definition                    Initial Value    Approx d2E/dq
    -----------------------------------------------------------------
      1. B(Zr  2,Zr  1)                  3.4211         0.036777   
      2. B(Zr  3,Zr  0)                  3.4258         0.036145   
      3. B(Zr  4,Zr  3)                  3.4209         0.036800   
      4. B(Zr  4,Zr  1)                  3.4222         0.036621   
      5. B(Zr  5,Zr  0)                  3.4204         0.036859   
      6. B(Zr  5,Zr  2)                  3.4200         0.036924   
      7. B(O   6,Zr  0)                  2.0983         0.419718   
      8. B(O   6,Zr  3)                  2.1419         0.357658   
      9. B(O   6,Zr  5)                  2.1308         0.372477   
     10. B(O   7,Zr  2)                  2.1446         0.354018   
     11. B(O   7,Zr  1)                  2.0981         0.420019   
     12. B(O   7,Zr  4)                  2.1314         0.371726   
     13. B(O   8,Zr  5)                  2.1437         0.355189   
     14. B(O   8,Zr  2)                  2.0985         0.419415   
     15. B(O   8,Zr  1)                  2.1284         0.375809   
     16. B(O   9,Zr  4)                  2.1478         0.349962   
     17. B(O   9,Zr  3)                  2.1002         0.416813   
     18. B(O   9,Zr  0)                  2.1357         0.365800   
     19. B(O  10,Zr  3)                  2.1284         0.375741   
     20. B(O  10,Zr  4)                  2.0975         0.420950   
     21. B(O  10,Zr  1)                  2.1453         0.353199   
     22. B(O  11,Zr  5)                  2.0972         0.421357   
     23. B(O  11,Zr  2)                  2.1274         0.377175   
     24. B(O  11,Zr  0)                  2.1420         0.357467   
     25. B(O  12,Zr  0)                  1.9685         0.676065   
     26. B(O  13,Zr  0)                  1.9779         0.653241   
     27. B(O  14,Zr  0)                  2.0778         0.452597   
     28. B(O  15,Zr  0)                  2.0343         0.530968   
     29. B(O  16,Zr  1)                  2.0399         0.520172   
     30. B(O  17,Zr  1)                  2.0702         0.465403   
     31. B(O  18,Zr  1)                  1.9777         0.653673   
     32. B(O  19,Zr  1)                  1.9681         0.677179   
     33. B(O  20,Zr  2)                  1.9777         0.653616   
     34. B(O  21,Zr  2)                  2.0387         0.522382   
     35. B(O  22,Zr  2)                  1.9686         0.675893   
     36. B(O  23,Zr  2)                  2.0700         0.465643   
     37. B(O  24,Zr  3)                  2.0727         0.461088   
     38. B(O  25,Zr  3)                  1.9671         0.679549   
     39. B(O  26,Zr  3)                  2.0395         0.520890   
     40. B(O  27,Zr  3)                  1.9770         0.655305   
     41. B(O  28,Zr  4)                  1.9695         0.673591   
     42. B(O  29,Zr  4)                  2.0679         0.469234   
     43. B(O  30,Zr  4)                  1.9775         0.654064   
     44. B(O  31,Zr  4)                  2.0415         0.517157   
     45. B(O  32,Zr  5)                  2.0385         0.522864   
     46. B(O  33,Zr  5)                  1.9767         0.656069   
     47. B(O  34,Zr  5)                  2.0699         0.465818   
     48. B(O  35,Zr  5)                  1.9693         0.674281   
     49. B(C  36,O  33)                  1.2982         0.783898   
     50. B(C  36,O  12)                  1.2981         0.784442   
     51. B(C  37,O  25)                  1.2979         0.784888   
     52. B(C  37,O  13)                  1.2984         0.783461   
     53. B(C  38,O  21)                  1.2969         0.787842   
     54. B(C  38,O  14)                  1.2991         0.781570   
     55. B(C  39,O  29)                  1.2985         0.783133   
     56. B(C  39,O  15)                  1.2967         0.788240   
     57. B(C  40,O  34)                  1.2992         0.781142   
     58. B(C  40,O  16)                  1.2971         0.787216   
     59. B(C  41,O  26)                  1.2969         0.787913   
     60. B(C  41,O  17)                  1.2989         0.782066   
     61. B(C  42,O  22)                  1.2981         0.784280   
     62. B(C  42,O  18)                  1.2984         0.783536   
     63. B(C  43,O  19)                  1.2980         0.784540   
     64. B(C  43,O  30)                  1.2983         0.783790   
     65. B(C  44,O  35)                  1.2981         0.784415   
     66. B(C  44,O  20)                  1.2983         0.783820   
     67. B(C  45,O  31)                  1.2971         0.787163   
     68. B(C  45,O  23)                  1.2993         0.780949   
     69. B(C  46,O  32)                  1.2971         0.787237   
     70. B(C  46,O  24)                  1.2992         0.781145   
     71. B(C  47,O  28)                  1.2980         0.784639   
     72. B(C  47,O  27)                  1.2982         0.784122   
     73. B(H  48,C  41)                  1.0866         0.364596   
     74. B(H  49,C  42)                  1.0899         0.360298   
     75. B(H  50,C  38)                  1.0865         0.364699   
     76. B(H  51,C  37)                  1.0900         0.360163   
     77. B(H  52,C  43)                  1.0898         0.360352   
     78. B(H  53,C  47)                  1.0899         0.360189   
     79. B(H  54,C  39)                  1.0866         0.364578   
     80. B(H  55,C  45)                  1.0868         0.364388   
     81. B(H  56,C  40)                  1.0868         0.364417   
     82. B(H  57,C  46)                  1.0867         0.364434   
     83. B(H  58,C  36)                  1.0898         0.360353   
     84. B(H  59,C  44)                  1.0898         0.360335   
     85. B(H  61,O  15)                  3.2148         0.010000   
     86. B(H  61,Al 60)                  1.5966         0.392391   
     87. B(H  62,O  29)                  3.1298         0.010000   
     88. B(H  62,O   9)                  3.0698         0.010000   
     89. B(H  62,O  27)                  2.9745         0.010000   
     90. B(H  62,H  53)                  2.8821         0.010000   
     91. B(H  62,O  28)                  2.8719         0.010000   
     92. B(H  62,O  15)                  2.7598         0.010000   
     93. B(H  62,C  39)                  2.6959         0.010000   
     94. B(H  62,H  54)                  2.9802         0.010000   
     95. B(H  62,C  47)                  2.6413         0.010000   
     96. B(H  62,Al 60)                  1.5957         0.393755   
     97. B(H  63,O  25)                  3.4013         0.010000   
     98. B(H  63,C  37)                  3.1367         0.010000   
     99. B(H  63,H  51)                  2.8573         0.010000   
    100. B(H  63,Al 60)                  1.5967         0.392240   
    101. A(Zr  5,Zr  0,O   6)           36.3437         0.335127   
    102. A(O  11,Zr  0,O  15)          130.9917         0.476761   
    103. A(Zr  3,Zr  0,O  12)          126.8198         0.361959   
    104. A(O   9,Zr  0,O  14)          113.9808         0.464952   
    105. A(O   9,Zr  0,O  13)           91.3069         0.497509   
    106. A(O   9,Zr  0,O  15)           71.3013         0.478789   
    107. A(O  11,Zr  0,O  13)          144.7820         0.495383   
    108. A(Zr  5,Zr  0,O  11)           35.7696         0.326344   
    109. A(O   6,Zr  0,O  15)          135.7821         0.491111   
    110. A(Zr  5,Zr  0,O  14)          103.7983         0.339365   
    111. A(Zr  5,Zr  0,O  15)          159.4103         0.348580   
    112. A(O  14,Zr  0,O  15)           74.3091         0.498033   
    113. A(Zr  3,Zr  0,O  14)          145.4752         0.338260   
    114. A(Zr  3,Zr  0,O   9)           35.6785         0.326533   
    115. A(O   9,Zr  0,O  12)          162.1801         0.500697   
    116. A(Zr  3,Zr  0,O  15)           99.2549         0.347434   
    117. A(O  13,Zr  0,O  15)           83.2731         0.533456   
    118. A(O   6,Zr  0,O  11)           67.0172         0.456666   
    119. A(O  11,Zr  0,O  12)           82.6076         0.498555   
    120. A(Zr  5,Zr  0,O   9)           91.6031         0.327585   
    121. A(Zr  3,Zr  0,O   6)           36.5368         0.334041   
    122. A(Zr  5,Zr  0,O  12)           74.7090         0.363169   
    123. A(Zr  5,Zr  0,O  13)          109.2057         0.361046   
    124. A(Zr  3,Zr  0,Zr  5)           70.3640         0.247185   
    125. A(O   6,Zr  0,O  12)           95.1338         0.513710   
    126. A(O   6,Zr  0,O  13)           82.6417         0.510422   
    127. A(O  11,Zr  0,O  14)           70.6340         0.462996   
    128. A(O  13,Zr  0,O  14)          137.5394         0.517677   
    129. A(Zr  3,Zr  0,O  11)           91.1302         0.325297   
    130. A(Zr  3,Zr  0,O  13)           72.7210         0.359845   
    131. A(O   9,Zr  0,O  11)           92.9736         0.445400   
    132. A(O  12,Zr  0,O  15)          124.2194         0.536924   
    133. A(O   6,Zr  0,O  14)          137.6171         0.476835   
    134. A(O  12,Zr  0,O  14)           80.9270         0.521022   
    135. A(O   6,Zr  0,O   9)           67.3671         0.458589   
    136. A(O  12,Zr  0,O  13)           82.7602         0.558435   
    137. A(Zr  4,Zr  1,O  18)          109.0293         0.360688   
    138. A(O  16,Zr  1,O  19)          124.3086         0.535012   
    139. A(O  17,Zr  1,O  18)          137.6136         0.520457   
    140. A(Zr  2,Zr  1,Zr  4)           70.4402         0.247573   
    141. A(O  16,Zr  1,O  18)           82.5700         0.531460   
    142. A(Zr  4,Zr  1,O  10)           35.7649         0.325353   
    143. A(O  10,Zr  1,O  16)          131.8055         0.473915   
    144. A(Zr  2,Zr  1,O  19)          127.4899         0.363134   
    145. A(Zr  2,Zr  1,O   8)           35.6739         0.328927   
    146. A(O   8,Zr  1,O  19)          162.6412         0.503374   
    147. A(O   7,Zr  1,O  17)          137.9718         0.479356   
    148. A(O   7,Zr  1,O  19)           95.4270         0.513937   
    149. A(Zr  4,Zr  1,O  19)           74.8373         0.362869   
    150. A(O   7,Zr  1,O  18)           82.4975         0.510553   
    151. A(O  16,Zr  1,O  17)           74.5587         0.498715   
    152. A(O   7,Zr  1,O  10)           67.0216         0.455727   
    153. A(O   8,Zr  1,O  16)           71.0969         0.479359   
    154. A(Zr  2,Zr  1,O  10)           91.1059         0.325581   
    155. A(Zr  2,Zr  1,O   7)           36.7246         0.335044   
    156. A(Zr  2,Zr  1,O  18)           72.8600         0.360950   
    157. A(O   8,Zr  1,O  18)           92.0253         0.500074   
    158. A(O  10,Zr  1,O  19)           82.4050         0.497595   
    159. A(O  18,Zr  1,O  19)           83.0286         0.558680   
    160. A(Zr  2,Zr  1,O  16)           98.3431         0.347246   
    161. A(Zr  4,Zr  1,O  17)          104.3654         0.340581   
    162. A(Zr  4,Zr  1,O   7)           36.3166         0.334806   
    163. A(Zr  4,Zr  1,O   8)           91.2498         0.328696   
    164. A(O  10,Zr  1,O  17)           71.0231         0.464343   
    165. A(O   7,Zr  1,O  16)          135.0674         0.489310   
    166. A(Zr  2,Zr  1,O  17)          144.7419         0.340824   
    167. A(Zr  4,Zr  1,O  16)          159.5499         0.346997   
    168. A(O   8,Zr  1,O  10)           92.3910         0.446611   
    169. A(O  17,Zr  1,O  19)           81.2520         0.523921   
    170. A(O   7,Zr  1,O   8)           67.3724         0.460914   
    171. A(O  10,Zr  1,O  18)          144.5916         0.494341   
    172. A(O   8,Zr  1,O  17)          112.7993         0.469652   
    173. A(Zr  1,Zr  2,O  21)          159.9858         0.347494   
    174. A(O   7,Zr  2,O   8)           67.0671         0.455800   
    175. A(Zr  1,Zr  2,Zr  5)           70.3556         0.247870   
    176. A(O   8,Zr  2,O  21)          134.7317         0.489564   
    177. A(Zr  1,Zr  2,O  22)           74.8959         0.363016   
    178. A(Zr  1,Zr  2,O   7)           35.8026         0.325705   
    179. A(Zr  1,Zr  2,O   8)           36.2618         0.334964   
    180. A(Zr  1,Zr  2,O  20)          108.2560         0.360945   
    181. A(Zr  5,Zr  2,O   8)           36.7274         0.335186   
    182. A(Zr  5,Zr  2,O  21)           98.0086         0.347728   
    183. A(O  22,Zr  2,O  23)           81.2969         0.523785   
    184. A(O  11,Zr  2,O  20)           92.7410         0.500403   
    185. A(O   7,Zr  2,O  21)          132.7010         0.474487   
    186. A(O   7,Zr  2,O  20)          143.7893         0.494546   
    187. A(Zr  5,Zr  2,O  22)          128.2391         0.363264   
    188. A(O   8,Zr  2,O  11)           67.3577         0.461098   
    189. A(O  20,Zr  2,O  21)           82.5637         0.531876   
    190. A(O   7,Zr  2,O  23)           71.0513         0.464584   
    191. A(Zr  1,Zr  2,O  23)          104.6792         0.340854   
    192. A(O  11,Zr  2,O  22)          163.1851         0.503536   
    193. A(O   8,Zr  2,O  22)           95.8890         0.513616   
    194. A(O  20,Zr  2,O  23)          138.1692         0.520499   
    195. A(Zr  5,Zr  2,O  23)          143.8667         0.341082   
    196. A(O  11,Zr  2,O  21)           71.1796         0.480055   
    197. A(O   7,Zr  2,O  11)           92.3494         0.447092   
    198. A(O   7,Zr  2,O  22)           81.8018         0.497634   
    199. A(O   8,Zr  2,O  23)          137.9750         0.479274   
    200. A(Zr  1,Zr  2,O  11)           91.1190         0.329124   
    201. A(O  11,Zr  2,O  23)          111.8142         0.470009   
    202. A(O   8,Zr  2,O  20)           82.0564         0.510407   
    203. A(Zr  5,Zr  2,O  20)           73.0872         0.361191   
    204. A(O  21,Zr  2,O  23)           74.7486         0.499157   
    205. A(O  21,Zr  2,O  22)          124.0203         0.535248   
    206. A(Zr  5,Zr  2,O  11)           35.6544         0.329342   
    207. A(Zr  5,Zr  2,O   7)           91.1143         0.325920   
    208. A(O  20,Zr  2,O  22)           83.1005         0.558469   
    209. A(O   6,Zr  3,O  10)           92.0722         0.447613   
    210. A(O   9,Zr  3,O  10)           67.5850         0.460254   
    211. A(Zr  4,Zr  3,O  10)           35.6500         0.328951   
    212. A(O   6,Zr  3,O  27)          145.1821         0.495723   
    213. A(O  10,Zr  3,O  25)          162.8037         0.503685   
    214. A(O  10,Zr  3,O  27)           92.1489         0.500289   
    215. A(O   9,Zr  3,O  26)          135.1549         0.488741   
    216. A(O   9,Zr  3,O  25)           95.2893         0.513537   
    217. A(O  24,Zr  3,O  27)          137.3435         0.519792   
    218. A(Zr  0,Zr  3,O   9)           36.3777         0.333656   
    219. A(O   9,Zr  3,O  27)           82.6594         0.510060   
    220. A(Zr  0,Zr  3,O  26)          159.3458         0.346316   
    221. A(O  24,Zr  3,O  25)           80.9316         0.523348   
    222. A(Zr  0,Zr  3,O  27)          109.7011         0.360039   
    223. A(O  24,Zr  3,O  26)           74.5838         0.497980   
    224. A(O  10,Zr  3,O  26)           71.1774         0.479465   
    225. A(O   6,Zr  3,O  26)          131.7439         0.475130   
    226. A(O  25,Zr  3,O  26)          124.3966         0.535504   
    227. A(Zr  4,Zr  3,O  26)           98.3214         0.347363   
    228. A(O   6,Zr  3,O   9)           67.2212         0.456133   
    229. A(Zr  4,Zr  3,O  27)           73.1893         0.361142   
    230. A(O   6,Zr  3,O  25)           82.1253         0.499081   
    231. A(Zr  4,Zr  3,O   9)           36.8360         0.334652   
    232. A(Zr  4,Zr  3,O  25)          127.8326         0.363389   
    233. A(Zr  0,Zr  3,O  25)           74.8722         0.362277   
    234. A(O  10,Zr  3,O  24)          112.5631         0.468834   
    235. A(O   9,Zr  3,O  24)          138.1320         0.477858   
    236. A(Zr  4,Zr  3,O   6)           90.9387         0.326287   
    237. A(O   6,Zr  3,O  24)           70.9672         0.464618   
    238. A(Zr  4,Zr  3,O  24)          144.4966         0.340329   
    239. A(Zr  0,Zr  3,O  10)           90.9598         0.327978   
    240. A(Zr  0,Zr  3,O   6)           35.6782         0.325325   
    241. A(O  25,Zr  3,O  27)           83.7610         0.559317   
    242. A(Zr  0,Zr  3,O  24)          104.2710         0.339310   
    243. A(O  26,Zr  3,O  27)           82.0181         0.531848   
    244. A(Zr  0,Zr  3,Zr  4)           70.3231         0.247128   
    245. A(Zr  1,Zr  4,Zr  3)           70.4154         0.247596   
    246. A(Zr  1,Zr  4,O  10)           36.7105         0.334929   
    247. A(O   9,Zr  4,O  10)           67.2760         0.455147   
    248. A(O   7,Zr  4,O  10)           67.2875         0.460181   
    249. A(Zr  3,Zr  4,O  10)           36.2583         0.335202   
    250. A(O   9,Zr  4,O  29)           70.9915         0.464257   
    251. A(O  28,Zr  4,O  30)           82.4855         0.558179   
    252. A(O   7,Zr  4,O  31)           70.9442         0.477883   
    253. A(O  29,Zr  4,O  31)           74.4381         0.498936   
    254. A(O  30,Zr  4,O  31)           82.3851         0.530938   
    255. A(O  28,Zr  4,O  31)          124.8093         0.533890   
    256. A(O  10,Zr  4,O  31)          134.8235         0.488984   
    257. A(O   9,Zr  4,O  31)          132.0043         0.472608   
    258. A(Zr  3,Zr  4,O  31)          159.4354         0.346943   
    259. A(Zr  1,Zr  4,O  31)           98.1137         0.346658   
    260. A(O  29,Zr  4,O  30)          137.3806         0.521317   
    261. A(O  10,Zr  4,O  30)           82.6664         0.510821   
    262. A(O   9,Zr  4,O  30)          144.7016         0.493552   
    263. A(O   7,Zr  4,O  30)           92.0700         0.499114   
    264. A(Zr  3,Zr  4,O  30)          109.1008         0.361025   
    265. A(Zr  1,Zr  4,O  30)           72.9100         0.360725   
    266. A(O  28,Zr  4,O  29)           82.2036         0.524205   
    267. A(O  10,Zr  4,O  29)          138.1540         0.480276   
    268. A(O   7,Zr  4,O  29)          112.6284         0.469417   
    269. A(Zr  3,Zr  4,O  29)          104.6911         0.341328   
    270. A(Zr  1,Zr  4,O  29)          144.6921         0.341049   
    271. A(O  10,Zr  4,O  28)           94.9273         0.513639   
    272. A(Zr  3,Zr  4,O  28)           74.6195         0.362843   
    273. A(Zr  3,Zr  4,O   7)           91.1809         0.328368   
    274. A(Zr  1,Zr  4,O   7)           35.6624         0.328104   
    275. A(Zr  1,Zr  4,O   9)           91.6012         0.324861   
    276. A(O   7,Zr  4,O   9)           92.8797         0.444985   
    277. A(Zr  1,Zr  4,O  28)          126.8021         0.362540   
    278. A(O   9,Zr  4,O  28)           82.1348         0.496254   
    279. A(O   7,Zr  4,O  28)          161.9968         0.501854   
    280. A(Zr  3,Zr  4,O   9)           35.8909         0.325122   
    281. A(O  34,Zr  5,O  35)           81.2510         0.523587   
    282. A(O  33,Zr  5,O  35)           83.0205         0.558613   
    283. A(O  32,Zr  5,O  35)          124.3994         0.535100   
    284. A(O   8,Zr  5,O  35)           81.8330         0.497718   
    285. A(O   6,Zr  5,O  35)          162.8298         0.502138   
    286. A(Zr  2,Zr  5,O  35)           74.7675         0.363115   
    287. A(O  33,Zr  5,O  34)          137.7254         0.520902   
    288. A(O  32,Zr  5,O  34)           74.6994         0.499277   
    289. A(O  11,Zr  5,O  34)          138.0310         0.479715   
    290. A(Zr  0,Zr  5,O  35)          127.8356         0.363005   
    291. A(O  32,Zr  5,O  33)           82.5853         0.532344   
    292. A(O   6,Zr  5,O  34)          112.2044         0.468962   
    293. A(Zr  2,Zr  5,O  34)          104.6569         0.341103   
    294. A(Zr  0,Zr  5,O  34)          144.3241         0.341001   
    295. A(O  11,Zr  5,O  33)           82.3764         0.511206   
    296. A(O   8,Zr  5,O  33)          144.1416         0.495193   
    297. A(O   6,Zr  5,O  33)           92.7371         0.499586   
    298. A(Zr  0,Zr  5,O  33)           73.1330         0.361312   
    299. A(O  11,Zr  5,O  32)          134.7068         0.490066   
    300. A(O   8,Zr  5,O  32)          132.3286         0.474855   
    301. A(O   6,Zr  5,O  32)           71.1173         0.479028   
    302. A(Zr  2,Zr  5,O  32)          159.6755         0.347782   
    303. A(Zr  0,Zr  5,O  32)           98.0517         0.347678   
    304. A(Zr  2,Zr  5,O   6)           91.0084         0.328661   
    305. A(Zr  0,Zr  5,O   6)           35.7032         0.328564   
    306. A(Zr  0,Zr  5,Zr  2)           70.3206         0.247950   
    307. A(O   8,Zr  5,O  34)           71.0692         0.464897   
    308. A(O  11,Zr  5,O  35)           95.6601         0.513831   
    309. A(O   8,Zr  5,O  11)           67.0797         0.456458   
    310. A(O   6,Zr  5,O  11)           67.2411         0.460432   
    311. A(Zr  2,Zr  5,O  11)           36.2476         0.335443   
    312. A(Zr  0,Zr  5,O  11)           36.6555         0.335344   
    313. A(O   6,Zr  5,O   8)           92.2953         0.446345   
    314. A(Zr  2,Zr  5,O  33)          108.5854         0.361422   
    315. A(Zr  2,Zr  5,O   8)           35.8304         0.326097   
    316. A(Zr  0,Zr  5,O   8)           91.1853         0.326001   
    317. A(Zr  3,O   6,Zr  5)          134.8045         0.446905   
    318. A(Zr  0,O   6,Zr  5)          107.9531         0.460105   
    319. A(Zr  0,O   6,Zr  3)          107.7850         0.456710   
    320. A(Zr  2,O   7,Zr  4)          134.7304         0.445915   
    321. A(Zr  1,O   7,Zr  2)          107.4729         0.455919   
    322. A(Zr  1,O   7,Zr  4)          108.0210         0.459995   
    323. A(Zr  1,O   8,Zr  2)          108.0644         0.460793   
    324. A(Zr  2,O   8,Zr  5)          107.4421         0.456074   
    325. A(Zr  1,O   8,Zr  5)          134.6014         0.447066   
    326. A(Zr  3,O   9,Zr  4)          107.2731         0.454329   
    327. A(Zr  0,O   9,Zr  4)          133.9925         0.443692   
    328. A(Zr  4,O   9,H  62)           98.5342         0.138478   
    329. A(Zr  3,O   9,H  62)          101.5036         0.140475   
    330. A(Zr  0,O   9,H  62)          102.4335         0.138976   
    331. A(Zr  0,O   9,Zr  3)          107.9437         0.458008   
    332. A(Zr  3,O  10,Zr  4)          108.0917         0.461085   
    333. A(Zr  1,O  10,Zr  4)          107.5246         0.455911   
    334. A(Zr  1,O  10,Zr  3)          134.7865         0.446596   
    335. A(Zr  2,O  11,Zr  5)          108.0980         0.461487   
    336. A(Zr  0,O  11,Zr  5)          107.5749         0.456990   
    337. A(Zr  0,O  11,Zr  2)          134.6336         0.447879   
    338. A(Zr  0,O  12,C  36)          131.3459         0.511633   
    339. A(Zr  0,O  13,C  37)          133.6238         0.508242   
    340. A(Zr  0,O  14,C  38)          140.2824         0.474618   
    341. A(Zr  0,O  15,C  39)          129.3277         0.489581   
    342. A(H  61,O  15,H  62)           52.8268         0.096997   
    343. A(C  39,O  15,H  61)          105.4181         0.134527   
    344. A(Zr  0,O  15,H  61)          120.1338         0.137198   
    345. A(C  39,O  15,H  62)           73.5248         0.155462   
    346. A(Zr  0,O  15,H  62)          116.7474         0.159362   
    347. A(Zr  1,O  16,C  40)          128.8904         0.487606   
    348. A(Zr  1,O  17,C  41)          140.2449         0.477117   
    349. A(Zr  1,O  18,C  42)          133.5350         0.508313   
    350. A(Zr  1,O  19,C  43)          131.0950         0.511802   
    351. A(Zr  2,O  20,C  44)          133.3081         0.508339   
    352. A(Zr  2,O  21,C  38)          129.1052         0.488060   
    353. A(Zr  2,O  22,C  42)          130.9181         0.511589   
    354. A(Zr  2,O  23,C  45)          139.7180         0.477036   
    355. A(Zr  3,O  24,C  46)          140.0311         0.476196   
    356. A(Zr  3,O  25,C  37)          131.0398         0.512179   
    357. A(C  37,O  25,H  63)           67.2474         0.127949   
    358. A(Zr  3,O  25,H  63)          123.5683         0.132645   
    359. A(Zr  3,O  26,C  41)          129.2371         0.487810   
    360. A(C  47,O  27,H  62)           62.5782         0.144528   
    361. A(Zr  3,O  27,H  62)          108.0771         0.150727   
    362. A(Zr  3,O  27,C  47)          133.1534         0.508621   
    363. A(C  47,O  28,H  62)           66.6398         0.149484   
    364. A(Zr  4,O  28,H  62)          109.9870         0.156646   
    365. A(Zr  4,O  28,C  47)          131.2696         0.511306   
    366. A(Zr  4,O  29,C  39)          140.9834         0.477957   
    367. A(C  39,O  29,H  62)           58.7749         0.137789   
    368. A(Zr  4,O  29,H  62)           98.5368         0.139301   
    369. A(Zr  4,O  30,C  43)          133.5227         0.508401   
    370. A(Zr  4,O  31,C  45)          128.8023         0.487076   
    371. A(Zr  5,O  32,C  46)          128.8736         0.488074   
    372. A(Zr  5,O  33,C  36)          133.2910         0.508705   
    373. A(Zr  5,O  34,C  40)          139.9335         0.477091   
    374. A(Zr  5,O  35,C  44)          131.2054         0.511377   
    375. A(O  12,C  36,O  33)          127.4668         0.466491   
    376. A(O  33,C  36,H  58)          116.2536         0.365052   
    377. A(O  12,C  36,H  58)          116.2794         0.365096   
    378. A(O  13,C  37,O  25)          127.4370         0.466492   
    379. A(H  51,C  37,H  63)           65.2521         0.125809   
    380. A(O  25,C  37,H  63)           90.3207         0.139348   
    381. A(O  13,C  37,H  63)          111.1774         0.139327   
    382. A(O  25,C  37,H  51)          116.2876         0.365098   
    383. A(O  13,C  37,H  51)          116.2747         0.364984   
    384. A(O  14,C  38,O  21)          129.3183         0.466606   
    385. A(O  21,C  38,H  50)          115.3206         0.366117   
    386. A(O  14,C  38,H  50)          115.3611         0.365616   
    387. A(O  15,C  39,O  29)          129.2961         0.466820   
    388. A(H  54,C  39,H  62)           94.2346         0.142248   
    389. A(O  29,C  39,H  62)           96.9020         0.161596   
    390. A(O  15,C  39,H  62)           79.0074         0.161703   
    391. A(O  29,C  39,H  54)          115.3530         0.365720   
    392. A(O  15,C  39,H  54)          115.3489         0.366128   
    393. A(O  16,C  40,O  34)          129.3089         0.466492   
    394. A(O  34,C  40,H  56)          115.3699         0.365533   
    395. A(O  16,C  40,H  56)          115.3211         0.366019   
    396. A(O  17,C  41,O  26)          129.3008         0.466668   
    397. A(O  26,C  41,H  48)          115.3326         0.366105   
    398. A(O  17,C  41,H  48)          115.3667         0.365638   
    399. A(O  18,C  42,O  22)          127.4699         0.466434   
    400. A(O  22,C  42,H  49)          116.2819         0.365073   
    401. A(O  18,C  42,H  49)          116.2480         0.365014   
    402. A(O  30,C  43,H  52)          116.2600         0.365044   
    403. A(O  19,C  43,H  52)          116.2899         0.365103   
    404. A(O  19,C  43,O  30)          127.4499         0.466490   
    405. A(O  35,C  44,H  59)          116.2679         0.365090   
    406. A(O  20,C  44,H  59)          116.2392         0.365043   
    407. A(O  20,C  44,O  35)          127.4927         0.466480   
    408. A(O  31,C  45,H  55)          115.3224         0.366009   
    409. A(O  23,C  45,H  55)          115.3837         0.365513   
    410. A(O  23,C  45,O  31)          129.2937         0.466465   
    411. A(O  32,C  46,H  57)          115.3260         0.366023   
    412. A(O  24,C  46,H  57)          115.3646         0.365536   
    413. A(O  24,C  46,O  32)          129.3095         0.466494   
    414. A(H  53,C  47,H  62)           91.4125         0.144571   
    415. A(O  28,C  47,H  62)           86.5431         0.165004   
    416. A(O  27,C  47,H  62)           91.5557         0.164993   
    417. A(O  28,C  47,H  53)          116.2897         0.365083   
    418. A(O  27,C  47,H  53)          116.2303         0.365042   
    419. A(O  27,C  47,O  28)          127.4754         0.466537   
    420. A(C  37,H  51,H  63)           94.4790         0.114540   
    421. A(C  47,H  53,H  62)           66.3737         0.114020   
    422. A(C  39,H  54,H  62)           64.4424         0.112123   
    423. A(H  62,Al 60,H  63)          116.2523         0.381918   
    424. A(H  61,Al 60,H  63)          116.7274         0.381688   
    425. A(H  61,Al 60,H  62)          114.7635         0.381944   
    426. A(O  15,H  61,Al 60)           84.9742         0.129043   
    427. A(O  29,H  62,H  54)           38.4878         0.093077   
    428. A(O  27,H  62,O  29)           86.9028         0.096179   
    429. A(O  29,H  62,H  53)           93.3355         0.093423   
    430. A(O  15,H  62,O  29)           46.4082         0.097582   
    431. A(O  29,H  62,C  39)           24.3231         0.098388   
    432. A(O  29,H  62,C  47)           77.5089         0.098825   
    433. A(O  29,H  62,Al 60)          145.8173         0.132009   
    434. A(O   9,H  62,H  54)           76.0083         0.093285   
    435. A(O   9,H  62,H  53)           84.1452         0.093650   
    436. A(O   9,H  62,O  28)           54.1077         0.097218   
    437. A(O   9,H  62,O  15)           48.9557         0.098021   
    438. A(O   9,H  62,C  39)           54.7025         0.098868   
    439. A(O   9,H  62,C  47)           61.9384         0.099327   
    440. A(O   9,H  62,Al 60)          127.9435         0.134209   
    441. A(O  27,H  62,H  54)          124.6963         0.093639   
    442. A(H  53,H  62,H  54)          125.7828         0.091858   
    443. A(O  28,H  62,H  54)           88.2791         0.094052   
    444. A(O  15,H  62,H  54)           40.9226         0.094545   
    445. A(C  39,H  62,H  54)           21.3230         0.095066   
    446. A(C  47,H  62,H  54)          114.8347         0.095348   
    447. A(H  54,H  62,Al 60)          111.0989         0.116790   
    448. A(O  27,H  62,H  53)           40.5382         0.094033   
    449. A(O  27,H  62,O  28)           46.8937         0.097896   
    450. A(O   9,H  62,O  27)           52.9116         0.096546   
    451. A(O  15,H  62,O  27)          100.9876         0.098765   
    452. A(O  27,H  62,C  39)          104.8937         0.099682   
    453. A(O  27,H  62,C  47)           25.8660         0.100179   
    454. A(O  27,H  62,Al 60)          116.2235         0.137936   
    455. A(O  28,H  62,H  53)           41.3434         0.094481   
    456. A(O  15,H  62,H  53)          130.9969         0.095017   
    457. A(C  39,H  62,H  53)          117.6451         0.095582   
    458. A(O  28,H  62,O  29)           52.3018         0.096819   
    459. A(C  47,H  62,H  53)           22.2138         0.095888   
    460. A(H  53,H  62,Al 60)          120.7114         0.119152   
    461. A(O  15,H  62,O  28)           92.0543         0.099635   
    462. A(O   9,H  62,O  29)           46.5165         0.095632   
    463. A(O  28,H  62,C  39)           76.4707         0.100634   
    464. A(O  28,H  62,C  47)           26.8170         0.101175   
    465. A(O  28,H  62,Al 60)          160.5982         0.142296   
    466. A(O  15,H  62,C  39)           27.4679         0.101770   
    467. A(O  15,H  62,C  47)          109.3053         0.102364   
    468. A(O  15,H  62,Al 60)          101.9402         0.147502   
    469. A(C  39,H  62,C  47)          100.7429         0.103619   
    470. A(C  39,H  62,Al 60)          121.5164         0.152996   
    471. A(C  47,H  62,Al 60)          133.8264         0.155971   
    472. A(O  25,H  63,C  37)           22.4319         0.094193   
    473. A(O  25,H  63,H  51)           36.5853         0.092603   
    474. A(O  25,H  63,Al 60)           96.9672         0.123288   
    475. A(C  37,H  63,H  51)           20.2689         0.093657   
    476. A(C  37,H  63,Al 60)           89.1553         0.133322   
    477. A(H  51,H  63,Al 60)          102.1271         0.119752   
    478. D(O   7,Zr  2,Zr  1,Zr  4)    -17.4888         0.010000   
    479. D(Zr  5,Zr  2,Zr  1,Zr  4)    104.5291         0.010000   
    480. D(Zr  5,Zr  2,Zr  1,O   7)    122.0179         0.010000   
    481. D(Zr  4,Zr  3,Zr  0,Zr  5)   -104.6047         0.010000   
    482. D(Zr  4,Zr  3,Zr  0,O   6)   -121.8624         0.010000   
    483. D(O   6,Zr  3,Zr  0,Zr  5)     17.2577         0.010000   
    484. D(O   7,Zr  4,Zr  1,Zr  2)     17.6634         0.010000   
    485. D(Zr  3,Zr  4,Zr  1,O   7)   -122.2308         0.010000   
    486. D(Zr  3,Zr  4,Zr  1,Zr  2)   -104.5674         0.010000   
    487. D(O   7,Zr  4,Zr  3,Zr  0)     74.8724         0.010000   
    488. D(Zr  1,Zr  4,Zr  3,O   6)     74.7312         0.010000   
    489. D(Zr  1,Zr  4,Zr  3,Zr  0)    104.4284         0.010000   
    490. D(O   6,Zr  5,Zr  0,Zr  3)    -17.3392         0.010000   
    491. D(Zr  2,Zr  5,Zr  0,O   6)    121.9842         0.010000   
    492. D(Zr  2,Zr  5,Zr  0,Zr  3)    104.6450         0.010000   
    493. D(O   6,Zr  5,Zr  2,Zr  1)    -74.9371         0.010000   
    494. D(Zr  0,Zr  5,Zr  2,O   7)    -74.8692         0.010000   
    495. D(Zr  0,Zr  5,Zr  2,Zr  1)   -104.6116         0.010000   
    496. D(Zr  3,O   6,Zr  5,Zr  0)    140.7455         0.010000   
    497. D(Zr  0,O   6,Zr  5,O   8)    -88.8368         0.010000   
    498. D(Zr  0,O   6,Zr  5,Zr  2)    -53.0134         0.010000   
    499. D(Zr  5,O   6,Zr  3,Zr  0)   -140.7898         0.010000   
    500. D(Zr  3,O   6,Zr  0,Zr  5)   -151.8690         0.010000   
    501. D(Zr  0,O   6,Zr  3,Zr  4)     53.1139         0.010000   
    502. D(Zr  5,O   6,Zr  0,Zr  3)    151.8690         0.010000   
    503. D(Zr  0,O   6,Zr  3,O   9)     24.1654         0.010000   
    504. D(Zr  3,O   6,Zr  0,O   9)    -23.7115         0.010000   
    505. D(Zr  1,O   7,Zr  2,Zr  5)    -53.0046         0.010000   
    506. D(Zr  2,O   7,Zr  1,O   8)     24.0636         0.010000   
    507. D(Zr  4,O   7,Zr  1,Zr  2)   -151.4359         0.010000   
    508. D(Zr  2,O   7,Zr  1,Zr  4)    151.4359         0.010000   
    509. D(Zr  1,O   7,Zr  4,O   9)     88.7330         0.010000   
    510. D(Zr  2,O   7,Zr  4,Zr  1)   -140.0603         0.010000   
    511. D(Zr  1,O   7,Zr  4,Zr  3)     52.8577         0.010000   
    512. D(Zr  1,O   7,Zr  2,O   8)    -24.4868         0.010000   
    513. D(Zr  4,O   7,Zr  2,Zr  1)    140.2068         0.010000   
    514. D(Zr  1,O   8,Zr  5,Zr  2)   -140.0268         0.010000   
    515. D(Zr  5,O   8,Zr  2,Zr  1)   -151.2407         0.010000   
    516. D(Zr  1,O   8,Zr  2,O   7)     24.2011         0.010000   
    517. D(Zr  1,O   8,Zr  5,Zr  0)    -87.1873         0.010000   
    518. D(Zr  1,O   8,Zr  2,Zr  5)    151.2407         0.010000   
    519. D(Zr  2,O   8,Zr  5,Zr  0)     52.8395         0.010000   
    520. D(Zr  2,O   8,Zr  1,Zr  4)    -52.7991         0.010000   
    521. D(Zr  2,O   8,Zr  1,O   7)    -24.7145         0.010000   
    522. D(Zr  5,O   8,Zr  1,Zr  2)    139.8593         0.010000   
    523. D(Zr  0,O   9,Zr  3,Zr  4)   -149.9115         0.010000   
    524. D(Zr  0,O   9,Zr  4,Zr  1)     86.1090         0.010000   
    525. D(Zr  4,O   9,Zr  3,Zr  0)    149.9115         0.010000   
    526. D(Zr  0,O   9,Zr  3,O   6)    -23.7381         0.010000   
    527. D(Zr  0,O   9,Zr  4,Zr  3)    138.4743         0.010000   
    528. D(Zr  4,O   9,Zr  0,Zr  3)   -138.2851         0.010000   
    529. D(Zr  3,O   9,Zr  0,Zr  5)     52.0210         0.010000   
    530. D(Zr  3,O   9,Zr  4,Zr  1)    -52.3653         0.010000   
    531. D(Zr  3,O   9,Zr  0,O   6)     24.2347         0.010000   
    532. D(Zr  1,O  10,Zr  4,O   7)    -24.2052         0.010000   
    533. D(Zr  1,O  10,Zr  4,Zr  3)   -151.6831         0.010000   
    534. D(Zr  4,O  10,Zr  3,Zr  0)    -53.0469         0.010000   
    535. D(Zr  1,O  10,Zr  3,Zr  4)    140.4073         0.010000   
    536. D(Zr  1,O  10,Zr  3,Zr  0)     87.3605         0.010000   
    537. D(Zr  3,O  10,Zr  1,Zr  2)    -87.4078         0.010000   
    538. D(Zr  4,O  10,Zr  1,Zr  2)     53.1498         0.010000   
    539. D(Zr  3,O  10,Zr  4,Zr  1)    151.6831         0.010000   
    540. D(Zr  3,O  10,Zr  1,Zr  4)   -140.5576         0.010000   
    541. D(Zr  2,O  11,Zr  5,Zr  0)   -151.5029         0.010000   
    542. D(Zr  0,O  11,Zr  5,Zr  2)    151.5029         0.010000   
    543. D(Zr  5,O  11,Zr  2,Zr  1)     52.8370         0.010000   
    544. D(Zr  0,O  11,Zr  2,Zr  5)   -140.2699         0.010000   
    545. D(Zr  0,O  11,Zr  2,Zr  1)    -87.4328         0.010000   
    546. D(Zr  5,O  11,Zr  0,Zr  3)    -52.9584         0.010000   
    547. D(Zr  0,O  11,Zr  5,O   6)     24.3115         0.010000   
    548. D(Zr  2,O  11,Zr  0,Zr  5)    140.4094         0.010000   
    549. D(Zr  2,O  11,Zr  0,Zr  3)     87.4510         0.010000   
    550. D(C  36,O  12,Zr  0,Zr  5)     -2.3626         0.010000   
    551. D(C  36,O  12,Zr  0,Zr  3)     47.8558         0.010000   
    552. D(C  37,O  13,Zr  0,Zr  5)    -55.8937         0.010000   
    553. D(C  37,O  13,Zr  0,Zr  3)      5.3540         0.010000   
    554. D(C  38,O  14,Zr  0,Zr  5)      7.3031         0.010000   
    555. D(C  38,O  14,Zr  0,Zr  3)    -68.0104         0.010000   
    556. D(H  62,O  15,Zr  0,Zr  3)     19.0985         0.010000   
    557. D(C  39,O  15,Zr  0,Zr  5)    -13.3400         0.010000   
    558. D(C  39,O  15,Zr  0,Zr  3)    -71.0364         0.010000   
    559. D(C  40,O  16,Zr  1,Zr  4)     16.9416         0.010000   
    560. D(C  40,O  16,Zr  1,Zr  2)     71.8295         0.010000   
    561. D(C  41,O  17,Zr  1,Zr  4)     -6.3237         0.010000   
    562. D(C  41,O  17,Zr  1,Zr  2)     70.0022         0.010000   
    563. D(C  42,O  18,Zr  1,Zr  4)     57.4590         0.010000   
    564. D(C  42,O  18,Zr  1,Zr  2)     -4.0532         0.010000   
    565. D(C  43,O  19,Zr  1,Zr  4)      4.1791         0.010000   
    566. D(C  43,O  19,Zr  1,Zr  2)    -45.6536         0.010000   
    567. D(C  44,O  20,Zr  2,Zr  5)      2.3173         0.010000   
    568. D(C  44,O  20,Zr  2,Zr  1)    -59.6286         0.010000   
    569. D(C  38,O  21,Zr  2,Zr  5)    -71.3007         0.010000   
    570. D(C  38,O  21,Zr  2,Zr  1)    -18.5783         0.010000   
    571. D(C  42,O  22,Zr  2,Zr  5)     43.6622         0.010000   
    572. D(C  42,O  22,Zr  2,Zr  1)     -5.3405         0.010000   
    573. D(C  45,O  23,Zr  2,Zr  5)    -73.6255         0.010000   
    574. D(C  45,O  23,Zr  2,Zr  1)      3.0442         0.010000   
    575. D(C  46,O  24,Zr  3,Zr  4)     71.0231         0.010000   
    576. D(C  46,O  24,Zr  3,Zr  0)     -4.9897         0.010000   
    577. D(H  63,O  25,Zr  3,Zr  0)     91.6883         0.010000   
    578. D(C  37,O  25,Zr  3,Zr  4)    -45.4893         0.010000   
    579. D(C  37,O  25,Zr  3,Zr  0)      3.8502         0.010000   
    580. D(C  41,O  26,Zr  3,Zr  4)     71.4269         0.010000   
    581. D(C  41,O  26,Zr  3,Zr  0)     16.6488         0.010000   
    582. D(C  47,O  27,Zr  3,Zr  4)     -0.8400         0.010000   
    583. D(C  47,O  27,Zr  3,Zr  0)     60.3569         0.010000   
    584. D(H  62,O  27,Zr  3,Zr  0)     -8.6630         0.010000   
    585. D(H  62,O  28,Zr  4,Zr  1)    120.7384         0.010000   
    586. D(C  47,O  28,Zr  4,Zr  3)     -5.4569         0.010000   
    587. D(C  47,O  28,Zr  4,Zr  1)     44.7528         0.010000   
    588. D(H  62,O  29,Zr  4,Zr  1)   -116.7709         0.010000   
    589. D(C  39,O  29,Zr  4,Zr  3)      9.6210         0.010000   
    590. D(C  39,O  29,Zr  4,Zr  1)    -67.1184         0.010000   
    591. D(C  43,O  30,Zr  4,Zr  3)    -58.6512         0.010000   
    592. D(C  43,O  30,Zr  4,Zr  1)      2.8210         0.010000   
    593. D(C  45,O  31,Zr  4,Zr  3)    -17.8557         0.010000   
    594. D(C  45,O  31,Zr  4,Zr  1)    -72.1293         0.010000   
    595. D(C  46,O  32,Zr  5,Zr  2)     18.9703         0.010000   
    596. D(C  46,O  32,Zr  5,Zr  0)     72.2951         0.010000   
    597. D(C  36,O  33,Zr  5,Zr  2)     60.5642         0.010000   
    598. D(C  36,O  33,Zr  5,Zr  0)     -1.1932         0.010000   
    599. D(C  40,O  34,Zr  5,Zr  2)     -4.5773         0.010000   
    600. D(C  40,O  34,Zr  5,Zr  0)     71.9751         0.010000   
    601. D(C  44,O  35,Zr  5,Zr  2)      3.6731         0.010000   
    602. D(C  44,O  35,Zr  5,Zr  0)    -45.5275         0.010000   
    603. D(H  58,C  36,O  12,Zr  0)   -177.5661         0.047208   
    604. D(O  33,C  36,O  12,Zr  0)      2.6056         0.047208   
    605. D(H  58,C  36,O  33,Zr  5)   -179.8095         0.047135   
    606. D(O  12,C  36,O  33,Zr  5)      0.0189         0.047135   
    607. D(H  51,C  37,O  25,Zr  3)    177.8032         0.056944   
    608. D(O  13,C  37,O  25,H  63)   -117.3396         0.056944   
    609. D(O  13,C  37,O  25,Zr  3)     -1.8807         0.056944   
    610. D(H  51,C  37,O  13,Zr  0)    175.3364         0.052068   
    611. D(O  25,C  37,O  13,Zr  0)     -4.9796         0.052068   
    612. D(H  50,C  38,O  21,Zr  2)   -161.8522         0.047666   
    613. D(O  14,C  38,O  21,Zr  2)     18.1888         0.047666   
    614. D(H  50,C  38,O  14,Zr  0)   -155.1195         0.046823   
    615. D(O  21,C  38,O  14,Zr  0)     24.8395         0.046823   
    616. D(H  54,C  39,O  29,Zr  4)   -159.8357         0.056658   
    617. D(O  15,C  39,O  29,H  62)     81.4233         0.056658   
    618. D(O  15,C  39,O  29,Zr  4)     19.6159         0.056658   
    619. D(H  54,C  39,O  15,Zr  0)   -159.1310         0.061919   
    620. D(O  29,C  39,O  15,H  62)    -89.9552         0.061919   
    621. D(O  29,C  39,O  15,Zr  0)     21.4173         0.061919   
    622. D(H  56,C  40,O  34,Zr  5)    153.7302         0.046766   
    623. D(O  16,C  40,O  34,Zr  5)    -26.3578         0.046766   
    624. D(H  56,C  40,O  16,Zr  1)    161.1335         0.047581   
    625. D(O  34,C  40,O  16,Zr  1)    -18.7785         0.047581   
    626. D(H  48,C  41,O  26,Zr  3)    160.9891         0.047675   
    627. D(O  17,C  41,O  26,Zr  3)    -19.0078         0.047675   
    628. D(H  48,C  41,O  17,Zr  1)    155.2771         0.046889   
    629. D(O  26,C  41,O  17,Zr  1)    -24.7259         0.046889   
    630. D(H  49,C  42,O  22,Zr  2)   -175.2137         0.047186   
    631. D(O  18,C  42,O  22,Zr  2)      4.9579         0.047186   
    632. D(H  49,C  42,O  18,Zr  1)   -177.8391         0.047086   
    633. D(O  22,C  42,O  18,Zr  1)      1.9893         0.047086   
    634. D(H  52,C  43,O  30,Zr  4)    178.7773         0.047120   
    635. D(O  19,C  43,O  30,Zr  4)     -1.0549         0.047120   
    636. D(H  52,C  43,O  19,Zr  1)    176.0475         0.047221   
    637. D(O  30,C  43,O  19,Zr  1)     -4.1204         0.047221   
    638. D(H  59,C  44,O  35,Zr  5)    176.4574         0.047204   
    639. D(O  20,C  44,O  35,Zr  5)     -3.7286         0.047204   
    640. D(H  59,C  44,O  20,Zr  2)    179.1177         0.047124   
    641. D(O  35,C  44,O  20,Zr  2)     -0.6963         0.047124   
    642. D(H  55,C  45,O  31,Zr  4)   -161.3341         0.047574   
    643. D(O  23,C  45,O  31,Zr  4)     18.4821         0.047574   
    644. D(H  55,C  45,O  23,Zr  2)   -152.2174         0.046740   
    645. D(O  31,C  45,O  23,Zr  2)     27.9664         0.046740   
    646. D(H  57,C  46,O  32,Zr  5)    160.7754         0.047584   
    647. D(O  24,C  46,O  32,Zr  5)    -19.1847         0.047584   
    648. D(H  57,C  46,O  24,Zr  3)    154.0633         0.046766   
    649. D(O  32,C  46,O  24,Zr  3)    -25.9766         0.046766   
    650. D(H  53,C  47,O  28,Zr  4)   -173.4512         0.056903   
    651. D(O  27,C  47,O  28,H  62)    -89.3102         0.056903   
    652. D(O  27,C  47,O  28,Zr  4)      7.3701         0.056903   
    653. D(H  53,C  47,O  27,Zr  3)    178.0724         0.056819   
    654. D(O  28,C  47,O  27,H  62)     86.8366         0.056819   
    655. D(O  28,C  47,O  27,Zr  3)     -2.7485         0.056819   
    656. D(H  63,H  51,C  37,O  25)    -77.2426         0.121521   
    657. D(H  63,H  51,C  37,O  13)    102.4776         0.121521   
    658. D(H  62,H  53,C  47,O  28)    -86.8418         0.121542   
    659. D(H  62,H  53,C  47,O  27)     92.4315         0.121542   
    660. D(H  62,H  54,C  39,O  29)     99.6963         0.125183   
    661. D(H  62,H  54,C  39,O  15)    -79.8341         0.125183   
    662. D(O  15,H  61,Al 60,H  63)    120.1951         0.010000   
    663. D(O  15,H  61,Al 60,H  62)    -20.8529         0.010000   
    664. D(Al 60,H  61,O  15,C  39)     68.2316         0.010000   
    665. D(Al 60,H  61,O  15,Zr  0)    -88.7280         0.010000   
    666. D(C  39,H  62,Al 60,H  61)      4.0638         0.010983   
    667. D(C  47,H  62,Al 60,H  61)    157.1457         0.010983   
    668. D(C  47,H  62,H  54,C  39)    -51.6287         0.010000   
    669. D(Al 60,H  62,H  54,C  39)    123.5329         0.010000   
    670. D(C  39,H  62,H  53,C  47)     43.4444         0.010000   
    671. D(Al 60,H  62,H  53,C  47)   -132.5174         0.010000   
    672. D(C  39,H  62,C  47,O  27)    102.0251         0.010000   
    673. D(Al 60,H  62,C  47,O  28)    177.7020         0.010000   
    674. D(C  47,H  62,C  39,O  15)   -111.3814         0.010000   
    675. D(Al 60,H  62,C  39,O  29)    177.9842         0.010000   
    676. D(Al 60,H  62,C  39,O  15)     49.2020         0.010000   
    677. D(C  47,H  62,O  29,Zr  4)    -16.6163         0.010000   
    678. D(Al 60,H  62,O  29,C  39)     -3.0594         0.010000   
    679. D(Al 60,H  62,O  29,Zr  4)    142.8104         0.010000   
    680. D(C  47,H  62,O  28,Zr  4)   -127.4056         0.010000   
    681. D(Al 60,H  62,O  28,C  47)     -4.9957         0.010000   
    682. D(Al 60,H  62,O  28,Zr  4)   -132.4013         0.010000   
    683. D(Al 60,H  62,C  47,O  27)    -54.8448         0.010000   
    684. D(C  47,H  62,O  27,Zr  3)    129.8804         0.010000   
    685. D(Al 60,H  62,O  27,C  47)    138.8889         0.010000   
    686. D(Al 60,H  62,O  27,Zr  3)    -91.2307         0.010000   
    687. D(C  47,H  62,O  15,Zr  0)    -50.4498         0.010000   
    688. D(Al 60,H  62,O  15,C  39)   -138.7290         0.010000   
    689. D(Al 60,H  62,O  15,Zr  0)     95.0410         0.010000   
    690. D(C  47,H  62,O   9,Zr  0)   -165.7450         0.010000   
    691. D(C  47,H  62,Al 60,H  63)     15.9069         0.010983   
    692. D(Al 60,H  62,O   9,Zr  3)     71.1841         0.010000   
    693. D(Al 60,H  62,O   9,Zr  0)    -40.3355         0.010000   
    694. D(C  37,H  63,Al 60,H  61)    -74.4413         0.010000   
    695. D(H  51,H  63,Al 60,H  62)     81.7117         0.010000   
    696. D(H  51,H  63,Al 60,H  61)    -58.7561         0.010000   
    697. D(O  25,H  63,H  51,C  37)     34.0456         0.010000   
    698. D(Al 60,H  63,H  51,C  37)    -51.2898         0.010000   
    699. D(H  51,H  63,C  37,O  13)   -110.1304         0.010000   
    700. D(Al 60,H  63,C  37,O  25)   -110.7098         0.010000   
    701. D(Al 60,H  63,C  37,O  13)     20.1412         0.010000   
    702. D(H  51,H  63,O  25,Zr  3)   -155.7314         0.010000   
    703. D(Al 60,H  63,O  25,C  37)     70.4311         0.010000   
    704. D(Al 60,H  63,O  25,Zr  3)    -54.7517         0.010000   
    -----------------------------------------------------------------

Number of atoms                         .... 64
Number of degrees of freedom            .... 704


         *************************************************************
         *                GEOMETRY OPTIMIZATION CYCLE   1            *
         *************************************************************
---------------------------------
CARTESIAN COORDINATES (ANGSTROEM)
---------------------------------
  Zr    -0.306703    2.173893    1.416529
  Zr     0.315750   -2.156265   -1.429723
  Zr     1.657463   -1.236727    1.579901
  Zr    -1.653925    1.258112   -1.597142
  Zr     1.750004    0.938029   -1.712185
  Zr    -1.745650   -0.916865    1.692405
  O     -1.656448    0.850562    0.505577
  O      1.667913   -0.830796   -0.525942
  O     -0.118987   -1.818423    0.626208
  O      0.123463    1.855199   -0.651009
  O     -0.055500   -0.105385   -1.937891
  O      0.059663    0.125213    1.923322
  O     -1.215755    2.178445    3.162588
  O     -1.701057    3.503079    0.968137
  O      1.358784    2.057314    2.653331
  O      0.954933    3.637172    0.779782
  O     -0.918920   -3.637024   -0.763328
  O     -1.366070   -2.054565   -2.632533
  O      1.718041   -3.479112   -0.988182
  O      1.203405   -2.158725   -3.186259
  O      1.006505   -2.495913    2.959069
  O      2.103963   -0.096586    3.209977
  O      2.716649   -2.791322    0.999596
  O      3.413773   -0.255096    1.093274
  O     -3.422773    0.300796   -1.096303
  O     -2.700031    2.821197   -1.020911
  O     -2.114500    0.093232   -3.206655
  O     -1.012264    2.479847   -3.012859
  O      1.310638    2.325428   -3.039262
  O      2.465915    2.568559   -0.660889
  O      2.249570   -0.083926   -3.329807
  O      3.642685    0.431769   -1.138550
  O     -3.636852   -0.402389    1.131980
  O     -2.230307    0.089087    3.323518
  O     -2.459873   -2.540415    0.625363
  O     -1.316488   -2.337958    2.986340
  C     -1.946846    1.281692    3.751059
  C     -2.572624    3.598702    0.010500
  C      2.023115    1.189554    3.355618
  C      2.056286    3.535538    0.102848
  C     -2.019234   -3.535705   -0.083984
  C     -2.041147   -1.195213   -3.334592
  C      2.577336   -3.582190   -0.020317
  C      1.952218   -1.270386   -3.765054
  C     -0.177333   -2.815141    3.385845
  C      4.078929    0.124728    0.043791
  C     -4.080335   -0.090777   -0.046437
  C      0.168645    2.769354   -3.467704
  H     -2.629059   -1.616112   -4.145735
  H      3.261917   -4.428645   -0.071666
  H      2.592678    1.600029    4.184888
  H     -3.274538    4.429810    0.078132
  H      2.378224   -1.551550   -4.727941
  H      0.205667    3.475965   -4.296730
  H      2.729495    4.385071    0.179409
  H      5.155132    0.198494    0.175814
  H     -2.665889   -4.408626   -0.113710
  H     -5.156744   -0.169164   -0.173761
  H     -2.369221    1.560891    4.716114
  H     -0.219467   -3.573180    4.167712
  Al    -0.420811    6.005675   -1.337353
  H     -0.177155    6.575896    0.133934
  H      0.447330    4.719099   -1.707817
  H     -1.924703    6.021275   -1.873642

----------------------------
CARTESIAN COORDINATES (A.U.)
----------------------------
  NO LB      ZA    FRAG     MASS         X           Y           Z
   0 Zr   12.0000*   0    91.220   -0.579584    4.108062    2.676851
   1 Zr   12.0000*   0    91.220    0.596681   -4.074751   -2.701786
   2 Zr   12.0000*   0    91.220    3.132151   -2.337076    2.985581
   3 Zr   12.0000*   0    91.220   -3.125466    2.377488   -3.018161
   4 Zr   12.0000*   0    91.220    3.307029    1.772618   -3.235561
   5 Zr   12.0000*   0    91.220   -3.298800   -1.732624    3.198181
   6 O     8.0000    0    15.999   -3.130232    1.607329    0.955402
   7 O     8.0000    0    15.999    3.151898   -1.569978   -0.993887
   8 O     8.0000    0    15.999   -0.224853   -3.436321    1.183362
   9 O     8.0000    0    15.999    0.233311    3.505817   -1.230229
  10 O     8.0000    0    15.999   -0.104880   -0.199149   -3.662084
  11 O     8.0000    0    15.999    0.112746    0.236617    3.634552
  12 O     8.0000    0    15.999   -2.297443    4.116665    5.976426
  13 O     8.0000    0    15.999   -3.214532    6.619860    1.829514
  14 O     8.0000    0    15.999    2.567729    3.887760    5.014069
  15 O     8.0000    0    15.999    1.804563    6.873258    1.473575
  16 O     8.0000    0    15.999   -1.736506   -6.872980   -1.442481
  17 O     8.0000    0    15.999   -2.581498   -3.882566   -4.974765
  18 O     8.0000    0    15.999    3.246627   -6.574569   -1.867393
  19 O     8.0000    0    15.999    2.274106   -4.079399   -6.021158
  20 O     8.0000    0    15.999    1.902020   -4.716591    5.591829
  21 O     8.0000    0    15.999    3.975913   -0.182521    6.065977
  22 O     8.0000    0    15.999    5.133723   -5.274834    1.888963
  23 O     8.0000    0    15.999    6.451097   -0.482062    2.065989
  24 O     8.0000    0    15.999   -6.468104    0.568423   -2.071712
  25 O     8.0000    0    15.999   -5.102319    5.331290   -1.929243
  26 O     8.0000    0    15.999   -3.995826    0.176183   -6.059700
  27 O     8.0000    0    15.999   -1.912902    4.686231   -5.693479
  28 O     8.0000    0    15.999    2.476748    4.394422   -5.743374
  29 O     8.0000    0    15.999    4.659905    4.853873   -1.248900
  30 O     8.0000    0    15.999    4.251072   -0.158598   -6.292423
  31 O     8.0000    0    15.999    6.883677    0.815925   -2.151547
  32 O     8.0000    0    15.999   -6.872655   -0.760406    2.139132
  33 O     8.0000    0    15.999   -4.214670    0.168350    6.280539
  34 O     8.0000    0    15.999   -4.648486   -4.800689    1.181765
  35 O     8.0000    0    15.999   -2.487802   -4.418100    5.643364
  36 C     6.0000    0    12.011   -3.679006    2.422048    7.088474
  37 C     6.0000    0    12.011   -4.861556    6.800562    0.019842
  38 C     6.0000    0    12.011    3.823134    2.247931    6.341199
  39 C     6.0000    0    12.011    3.885817    6.681198    0.194354
  40 C     6.0000    0    12.011   -3.815798   -6.681513   -0.158708
  41 C     6.0000    0    12.011   -3.857209   -2.258625   -6.301466
  42 C     6.0000    0    12.011    4.870458   -6.769359   -0.038393
  43 C     6.0000    0    12.011    3.689157   -2.400682   -7.114922
  44 C     6.0000    0    12.011   -0.335111   -5.319846    6.398320
  45 C     6.0000    0    12.011    7.708058    0.235702    0.082752
  46 C     6.0000    0    12.011   -7.710716   -0.171544   -0.087753
  47 C     6.0000    0    12.011    0.318694    5.233321   -6.553011
  48 H     1.0000    0     1.008   -4.968202   -3.054008   -7.834303
  49 H     1.0000    0     1.008    6.164130   -8.368926   -0.135429
  50 H     1.0000    0     1.008    4.899451    3.023617    7.908293
  51 H     1.0000    0     1.008   -6.187979    8.371128    0.147649
  52 H     1.0000    0     1.008    4.494191   -2.932004   -8.934513
  53 H     1.0000    0     1.008    0.388654    6.568622   -8.119644
  54 H     1.0000    0     1.008    5.157997    8.286583    0.339034
  55 H     1.0000    0     1.008    9.741789    0.375099    0.332241
  56 H     1.0000    0     1.008   -5.037800   -8.331095   -0.214880
  57 H     1.0000    0     1.008   -9.744834   -0.319674   -0.328361
  58 H     1.0000    0     1.008   -4.477178    2.949657    8.912163
  59 H     1.0000    0     1.008   -0.414733   -6.752331    7.875834
  60 Al   13.0000    0    26.982   -0.795218   11.349080   -2.527231
  61 H     1.0000    0     1.008   -0.334774   12.426643    0.253099
  62 H     1.0000    0     1.008    0.845331    8.917804   -3.227306
  63 H     1.0000    0     1.008   -3.637162   11.378560   -3.540670
* core charge reduced due to ECP

--------------------------------
INTERNAL COORDINATES (ANGSTROEM)
--------------------------------
 Zr     0   0   0     0.000000000000     0.00000000     0.00000000
 Zr     1   0   0     5.219086898138     0.00000000     0.00000000
 Zr     2   1   0     3.421050051098    49.00439390     0.00000000
 Zr     1   2   3     3.425766144084    49.10761008   180.01669524
 Zr     4   1   2     3.420880567969    70.32307475   307.67850851
 Zr     3   2   1     3.419962483704    70.35557858    52.29401822
 O      1   2   3     2.098296727533    46.89845025   229.82950474
 O      2   1   3     2.098101905262    46.98412151   309.90112099
 O      3   2   1     2.098493364799    36.26177272    70.08236767
 O      4   1   2     2.100187699356    36.37771962   289.06368224
 O      5   4   1     2.097499386988    36.25827369   121.94393171
 O      6   3   2     2.097236380742    36.24756095   237.78015202
 O      1   2   3     1.968532491990   122.73235298   292.70969335
 O      1   2   3     1.977881302140   121.19880893   190.34550091
 O      1   2   3     2.077767252347   100.51391612    18.61721316
 O      1   2   3     2.034295014499   110.61740894    95.66934178
 O      2   1   3     2.039887163221   110.60483128    83.02757139
 O      2   1   3     2.070171858884   100.32379687   160.28094068
 O      2   1   3     1.977701135804   121.18240609   349.24009079
 O      2   1   3     1.968084462529   122.79008266   246.46545625
 O      3   2   1     1.977725052921   108.25602300   115.99765868
 O      3   2   1     2.038732731818   159.98576524   355.50645547
 O      3   2   1     1.968601810099    74.89586501   193.28560052
 O      3   2   1     2.070031845849   104.67921008   269.82845850
 O      4   1   2     2.072707886346   104.27097716    90.91746156
 O      4   1   2     1.967133454391    74.87224321   167.19417085
 O      4   1   2     2.039511507955   159.34575018     6.82168177
 O      4   1   2     1.977022462524   109.70107267   244.69773802
 O      5   4   1     1.969530503991    74.61949371   243.65730949
 O      5   4   1     2.067940751501   104.69106447   321.09115508
 O      5   4   1     1.977538483159   109.10081473   167.47288806
 O      5   4   1     2.041469662242   159.43540763    45.88470270
 O      6   3   2     2.038482114426   159.67549478   312.88818083
 O      6   3   2     1.976705238526   108.58541467   191.83505902
 O      6   3   2     2.069929331506   104.65692286    38.34684989
 O      6   3   2     1.969251873122    74.76752225   114.80441386
 C     13   1   2     1.298059266734   131.34594866   347.25701829
 C     26   4   1     1.297904605101   131.03981899     3.85018132
 C     22   3   2     1.296882148474   129.10515233   341.42174541
 C     16   1   2     1.296744716292   129.32774422   338.62093598
 C     17   2   1     1.297098402487   128.89043413    22.61229890
 C     27   4   1     1.296857642716   129.23706513    16.64881015
 C     23   3   2     1.298115532168   130.91808309   354.65946196
 C     20   2   1     1.298025475662   131.09495684    15.05023801
 C     36   6   3     1.298068907753   131.20535039     3.67305433
 C     32   5   4     1.297116641434   128.80229303   342.14428688
 C     33   6   3     1.297091199091   128.87359429    18.97033062
 C     29   5   4     1.297991061892   131.26959083   354.54307761
 H     42  27   4     1.086622679881   115.33256002   160.98908842
 H     43  23   3     1.089850354056   116.28187265   184.78628096
 H     39  22   3     1.086545305585   115.32058887   198.14778999
 H     38  26   4     1.089952349847   116.28763628   177.80323797
 H     44  20   2     1.089809262944   116.28985157   176.04745771
 H     48  29   5     1.089933026688   116.28966729   186.54880044
 H     40  16   1     1.086636184542   115.34885815   200.86895348
 H     46  32   5     1.086777937439   115.32238304   198.66588987
 H     41  17   2     1.086755739851   115.32112190   161.13346065
 H     47  33   6     1.086743508910   115.32597781   160.77543761
 H     37  13   1     1.089808660247   116.27938748   182.43394530
 H     45  36   6     1.089822360260   116.26787013   176.45744321
 Al    16   1   2     3.461898719759   115.91791627    98.71890852
 H     61  16   1     1.596623701270    67.67573803   105.98543427
 H     61  16   1     1.595678565509    51.25495605   261.50146494
 H     61  16   1     1.596727986615   125.90025789   358.35016244

---------------------------
INTERNAL COORDINATES (A.U.)
---------------------------
 Zr     0   0   0     0.000000000000     0.00000000     0.00000000
 Zr     1   0   0     9.862644906617     0.00000000     0.00000000
 Zr     2   1   0     6.464847687013    49.00439390     0.00000000
 Zr     1   2   3     6.473759811179    49.10761008   180.01669524
 Zr     4   1   2     6.464527410314    70.32307475   307.67850851
 Zr     3   2   1     6.462792482485    70.35557858    52.29401822
 O      1   2   3     3.965206162741    46.89845025   229.82950474
 O      2   1   3     3.964838002003    46.98412151   309.90112099
 O      3   2   1     3.965577753321    36.26177272    70.08236767
 O      4   1   2     3.968779581613    36.37771962   289.06368224
 O      5   4   1     3.963699407474    36.25827369   121.94393171
 O      6   3   2     3.963202397698    36.24756095   237.78015202
 O      1   2   3     3.719987295587   122.73235298   292.70969335
 O      1   2   3     3.737653986448   121.19880893   190.34550091
 O      1   2   3     3.926411076966   100.51391612    18.61721316
 O      1   2   3     3.844260453004   110.61740894    95.66934178
 O      2   1   3     3.854828082589   110.60483128    83.02757139
 O      2   1   3     3.912057863442   100.32379687   160.28094068
 O      2   1   3     3.737313521414   121.18240609   349.24009079
 O      2   1   3     3.719140642606   122.79008266   246.46545625
 O      3   2   1     3.737358718216   108.25602300   115.99765868
 O      3   2   1     3.852646523398   159.98576524   355.50645547
 O      3   2   1     3.720118287829    74.89586501   193.28560052
 O      3   2   1     3.911793277151   104.67921008   269.82845850
 O      4   1   2     3.916850260813   104.27097716    90.91746156
 O      4   1   2     3.717343497673    74.87224321   167.19417085
 O      4   1   2     3.854118197015   159.34575018     6.82168177
 O      4   1   2     3.736031014781   109.70107267   244.69773802
 O      5   4   1     3.721873264947    74.61949371   243.65730949
 O      5   4   1     3.907841681512   104.69106447   321.09115508
 O      5   4   1     3.737006152460   109.10081473   167.47288806
 O      5   4   1     3.857818572347   159.43540763    45.88470270
[...]
176:   1636.96   0.104331  527.25  0.019889  (-0.116388 -0.048461 -0.063202)
177:   1826.19   0.023205  117.27  0.003965  (-0.056441  0.021555 -0.017750)
178:   1861.42   0.028333  143.18  0.004750  ( 0.044127  0.038455  0.036385)
179:   1889.69   0.043849  221.59  0.007241  (-0.030993  0.071626  0.033918)
180:   2888.58   0.017526   88.57  0.001893  (-0.020288 -0.037490  0.008737)
181:   2888.87   0.012654   63.95  0.001367  (-0.030768  0.013924  0.015045)
182:   2889.98   0.033942  171.53  0.003665  (-0.042997 -0.009704 -0.041499)
183:   2890.69   0.011024   55.71  0.001190  ( 0.010297 -0.015948 -0.028804)
184:   2892.03   0.025829  130.53  0.002787  ( 0.047696  0.015396  0.016588)
185:   2902.17   0.016937   85.59  0.001821  ( 0.020463  0.037449 -0.000212)
186:   2907.52   0.001581    7.99  0.000170  ( 0.006859  0.004165 -0.010260)
187:   2907.97   0.017340   87.63  0.001861  (-0.005772  0.029273 -0.031155)
188:   2908.49   0.049180  248.53  0.005277  ( 0.038228 -0.029445 -0.054298)
189:   2909.27   0.018130   91.62  0.001945  ( 0.012479 -0.035550  0.022918)
190:   2915.56   0.009489   47.95  0.001016  (-0.020039  0.011528  0.021936)
191:   2916.61   0.022753  114.99  0.002434  ( 0.011164 -0.041062  0.024976)

* The epsilon (eps) is given for a Dirac delta lineshape.
** The dipole moment derivative (T) already includes vibrational overlap.

The first frequency considered to be a vibration is 7
The total number of vibrations considered is 185


--------------------------
THERMOCHEMISTRY AT 298.15K
--------------------------

Temperature         ...   298.15 K
Pressure            ...     1.00 atm
Total Mass          ...  1213.52 AMU
Quasi RRHO          ...     True
Cut-Off Frequency   ...     1.00 cm^-1

Throughout the following assumptions are being made:
  (1) The electronic state is orbitally nondegenerate
  (2) There are no thermally accessible electronically excited states
  (3) Hindered rotations indicated by low frequency modes are not
      treated as such but are treated as vibrations and this may
      cause some error
  (4) All equations used are the standard statistical mechanics
      equations for an ideal gas
  (5) All vibrations are strictly harmonic

freq.      40.20  E(vib)   ...       0.54 
freq.      43.40  E(vib)   ...       0.53 
freq.      45.95  E(vib)   ...       0.53 
freq.      53.03  E(vib)   ...       0.52 
freq.      62.01  E(vib)   ...       0.51 
freq.      62.25  E(vib)   ...       0.51 
freq.      72.35  E(vib)   ...       0.50 
freq.      77.88  E(vib)   ...       0.49 
freq.      81.06  E(vib)   ...       0.48 
freq.      81.72  E(vib)   ...       0.48 
freq.      96.51  E(vib)   ...       0.47 
freq.      98.03  E(vib)   ...       0.46 
freq.      98.54  E(vib)   ...       0.46 
freq.     101.78  E(vib)   ...       0.46 
freq.     106.39  E(vib)   ...       0.45 
freq.     107.16  E(vib)   ...       0.45 
freq.     108.36  E(vib)   ...       0.45 
freq.     115.14  E(vib)   ...       0.44 
freq.     116.15  E(vib)   ...       0.44 
freq.     125.48  E(vib)   ...       0.43 
freq.     130.75  E(vib)   ...       0.43 
freq.     135.76  E(vib)   ...       0.42 
freq.     144.55  E(vib)   ...       0.41 
freq.     149.19  E(vib)   ...       0.40 
freq.     150.94  E(vib)   ...       0.40 
freq.     152.11  E(vib)   ...       0.40 
freq.     153.49  E(vib)   ...       0.40 
freq.     156.65  E(vib)   ...       0.40 
freq.     158.80  E(vib)   ...       0.39 
freq.     159.66  E(vib)   ...       0.39 
freq.     161.08  E(vib)   ...       0.39 
freq.     166.40  E(vib)   ...       0.39 
freq.     167.47  E(vib)   ...       0.38 
freq.     171.33  E(vib)   ...       0.38 
freq.     175.40  E(vib)   ...       0.38 
freq.     177.18  E(vib)   ...       0.37 
freq.     186.62  E(vib)   ...       0.37 
freq.     187.75  E(vib)   ...       0.36 
freq.     188.93  E(vib)   ...       0.36 
freq.     189.44  E(vib)   ...       0.36 
freq.     193.85  E(vib)   ...       0.36 
freq.     194.41  E(vib)   ...       0.36 
freq.     204.58  E(vib)   ...       0.35 
freq.     206.54  E(vib)   ...       0.35 
freq.     212.27  E(vib)   ...       0.34 
freq.     213.49  E(vib)   ...       0.34 
freq.     225.14  E(vib)   ...       0.33 
freq.     227.38  E(vib)   ...       0.33 
freq.     231.66  E(vib)   ...       0.32 
freq.     234.54  E(vib)   ...       0.32 
freq.     244.84  E(vib)   ...       0.31 
freq.     250.43  E(vib)   ...       0.30 
freq.     259.35  E(vib)   ...       0.30 
freq.     260.82  E(vib)   ...       0.30 
freq.     263.02  E(vib)   ...       0.29 
freq.     263.77  E(vib)   ...       0.29 
freq.     265.49  E(vib)   ...       0.29 
freq.     265.82  E(vib)   ...       0.29 
freq.     270.41  E(vib)   ...       0.29 
freq.     271.38  E(vib)   ...       0.29 
freq.     274.19  E(vib)   ...       0.28 
freq.     274.85  E(vib)   ...       0.28 
freq.     275.36  E(vib)   ...       0.28 
freq.     281.00  E(vib)   ...       0.28 
freq.     286.77  E(vib)   ...       0.27 
freq.     288.13  E(vib)   ...       0.27 
freq.     290.65  E(vib)   ...       0.27 
freq.     291.13  E(vib)   ...       0.27 
freq.     293.81  E(vib)   ...       0.27 
freq.     300.11  E(vib)   ...       0.26 
freq.     304.58  E(vib)   ...       0.26 
freq.     306.73  E(vib)   ...       0.26 
freq.     309.53  E(vib)   ...       0.26 
freq.     310.29  E(vib)   ...       0.26 
freq.     312.87  E(vib)   ...       0.25 
freq.     313.91  E(vib)   ...       0.25 
freq.     316.13  E(vib)   ...       0.25 
freq.     317.31  E(vib)   ...       0.25 
freq.     321.36  E(vib)   ...       0.25 
freq.     323.32  E(vib)   ...       0.25 
freq.     324.69  E(vib)   ...       0.24 
freq.     336.61  E(vib)   ...       0.24 
freq.     340.05  E(vib)   ...       0.23 
freq.     347.47  E(vib)   ...       0.23 
freq.     350.97  E(vib)   ...       0.23 
freq.     353.78  E(vib)   ...       0.22 
freq.     367.12  E(vib)   ...       0.22 
freq.     373.41  E(vib)   ...       0.21 
freq.     387.88  E(vib)   ...       0.20 
freq.     392.58  E(vib)   ...       0.20 
freq.     401.87  E(vib)   ...       0.19 
freq.     402.45  E(vib)   ...       0.19 
freq.     404.80  E(vib)   ...       0.19 
freq.     415.90  E(vib)   ...       0.18 
freq.     418.06  E(vib)   ...       0.18 
freq.     422.71  E(vib)   ...       0.18 
freq.     424.25  E(vib)   ...       0.18 
freq.     465.46  E(vib)   ...       0.16 
freq.     477.38  E(vib)   ...       0.15 
freq.     481.55  E(vib)   ...       0.15 
freq.     530.82  E(vib)   ...       0.13 
freq.     541.76  E(vib)   ...       0.12 
freq.     618.63  E(vib)   ...       0.09 
freq.     667.11  E(vib)   ...       0.08 
freq.     671.21  E(vib)   ...       0.08 
freq.     679.38  E(vib)   ...       0.08 
freq.     681.62  E(vib)   ...       0.08 
freq.     690.13  E(vib)   ...       0.07 
freq.     734.34  E(vib)   ...       0.06 
freq.     736.20  E(vib)   ...       0.06 
freq.     736.55  E(vib)   ...       0.06 
freq.     736.90  E(vib)   ...       0.06 
freq.     737.27  E(vib)   ...       0.06 
freq.     738.36  E(vib)   ...       0.06 
freq.     739.41  E(vib)   ...       0.06 
freq.     739.88  E(vib)   ...       0.06 
freq.     740.36  E(vib)   ...       0.06 
freq.     740.70  E(vib)   ...       0.06 
freq.     741.75  E(vib)   ...       0.06 
freq.     742.21  E(vib)   ...       0.06 
freq.     750.91  E(vib)   ...       0.06 
freq.     776.18  E(vib)   ...       0.05 
freq.    1000.48  E(vib)   ...       0.02 
freq.    1000.62  E(vib)   ...       0.02 
freq.    1000.75  E(vib)   ...       0.02 
freq.    1000.94  E(vib)   ...       0.02 
freq.    1001.24  E(vib)   ...       0.02 
freq.    1001.89  E(vib)   ...       0.02 
freq.    1002.31  E(vib)   ...       0.02 
freq.    1002.55  E(vib)   ...       0.02 
freq.    1004.45  E(vib)   ...       0.02 
freq.    1004.78  E(vib)   ...       0.02 
freq.    1005.12  E(vib)   ...       0.02 
freq.    1005.44  E(vib)   ...       0.02 
freq.    1347.42  E(vib)   ...       0.01 
freq.    1348.05  E(vib)   ...       0.01 
freq.    1348.58  E(vib)   ...       0.01 
freq.    1349.37  E(vib)   ...       0.01 
freq.    1349.78  E(vib)   ...       0.01 
freq.    1350.31  E(vib)   ...       0.01 
freq.    1351.19  E(vib)   ...       0.01 
freq.    1352.21  E(vib)   ...       0.01 
freq.    1352.87  E(vib)   ...       0.01 
freq.    1353.23  E(vib)   ...       0.01 
freq.    1353.49  E(vib)   ...       0.01 
freq.    1353.80  E(vib)   ...       0.01 
freq.    1359.53  E(vib)   ...       0.01 
freq.    1361.53  E(vib)   ...       0.01 
freq.    1361.73  E(vib)   ...       0.01 
freq.    1361.85  E(vib)   ...       0.01 
freq.    1364.24  E(vib)   ...       0.01 
freq.    1365.12  E(vib)   ...       0.01 
freq.    1365.59  E(vib)   ...       0.01 
freq.    1368.70  E(vib)   ...       0.01 
freq.    1369.83  E(vib)   ...       0.01 
freq.    1372.71  E(vib)   ...       0.01 
freq.    1373.85  E(vib)   ...       0.01 
freq.    1381.49  E(vib)   ...       0.01 
freq.    1541.86  E(vib)   ...       0.00 
freq.    1552.98  E(vib)   ...       0.00 
freq.    1559.94  E(vib)   ...       0.00 
freq.    1562.94  E(vib)   ...       0.00 
freq.    1568.94  E(vib)   ...       0.00 
freq.    1574.70  E(vib)   ...       0.00 
freq.    1575.08  E(vib)   ...       0.00 
freq.    1625.33  E(vib)   ...       0.00 
freq.    1628.19  E(vib)   ...       0.00 
freq.    1631.42  E(vib)   ...       0.00 
freq.    1635.64  E(vib)   ...       0.00 
freq.    1636.96  E(vib)   ...       0.00 
freq.    1826.19  E(vib)   ...       0.00 
freq.    1861.42  E(vib)   ...       0.00 
freq.    1889.69  E(vib)   ...       0.00 
freq.    2888.58  E(vib)   ...       0.00 
freq.    2888.87  E(vib)   ...       0.00 
freq.    2889.98  E(vib)   ...       0.00 
freq.    2890.69  E(vib)   ...       0.00 
freq.    2892.03  E(vib)   ...       0.00 
freq.    2902.17  E(vib)   ...       0.00 
freq.    2907.52  E(vib)   ...       0.00 
freq.    2907.97  E(vib)   ...       0.00 
freq.    2908.49  E(vib)   ...       0.00 
freq.    2909.27  E(vib)   ...       0.00 
freq.    2915.56  E(vib)   ...       0.00 
freq.    2916.61  E(vib)   ...       0.00 

------------
INNER ENERGY
------------

The inner energy is: U= E(el) + E(ZPE) + E(vib) + E(rot) + E(trans)
    E(el)   - is the total energy from the electronic structure calculation
              = E(kin-el) + E(nuc-el) + E(el-el) + E(nuc-nuc)
    E(ZPE)  - the the zero temperature vibrational energy from the frequency calculation
    E(vib)  - the the finite temperature correction to E(ZPE) due to population
              of excited vibrational states
    E(rot)  - is the rotational thermal energy
    E(trans)- is the translational thermal energy

Summary of contributions to the inner energy U:
Electronic energy                ...  -3244.51801868 Eh
Zero point energy                ...      0.32624462 Eh     204.72 kcal/mol
Thermal vibrational correction   ...      0.05580756 Eh      35.02 kcal/mol
Thermal rotational correction    ...      0.00141627 Eh       0.89 kcal/mol
Thermal translational correction ...      0.00141627 Eh       0.89 kcal/mol
-----------------------------------------------------------------------
Total thermal energy                  -3244.13313396 Eh


Summary of corrections to the electronic energy:
(perhaps to be used in another calculation)
Total thermal correction                  0.05864010 Eh      36.80 kcal/mol
Non-thermal (ZPE) correction              0.32624462 Eh     204.72 kcal/mol
-----------------------------------------------------------------------
Total correction                          0.38488473 Eh     241.52 kcal/mol


--------
ENTHALPY
--------

The enthalpy is H = U + kB*T
                kB is Boltzmann's constant
Total thermal energy              ...  -3244.13313396 Eh 
Thermal Enthalpy correction       ...      0.00094421 Eh       0.59 kcal/mol
-----------------------------------------------------------------------
Total Enthalpy                    ...  -3244.13218975 Eh


Note: Only C1 symmetry has been detected, increase convergence thresholds 
      if your molecule has a higher symmetry. Symmetry factor of 1.0 is   
      used for the rotational entropy correction. 
 

Note: Rotational entropy computed according to Herzberg 
Infrared and Raman Spectra, Chapter V,1, Van Nostrand Reinhold, 1945 
Point Group:  C1, Symmetry Number:   1  
Rotational constants in cm-1:     0.001865     0.001673     0.001608 

Vibrational entropy computed according to the QRRHO of S. Grimme
Chem.Eur.J. 2012 18 9955 using a reference frequency of 100.0 cm-1


-------
ENTROPY
-------

The entropy contributions are T*S = T*(S(el)+S(vib)+S(rot)+S(trans))
     S(el)   - electronic entropy
     S(vib)  - vibrational entropy
     S(rot)  - rotational entropy
     S(trans)- translational entropy
The entropies will be listed as multiplied by the temperature to get
units of energy

Electronic entropy                ...      0.00000000 Eh      0.00 kcal/mol
Vibrational entropy               ...      0.09965149 Eh     62.53 kcal/mol
Rotational entropy                ...      0.01853270 Eh     11.63 kcal/mol
Translational entropy             ...      0.02240642 Eh     14.06 kcal/mol
-----------------------------------------------------------------------
Final entropy term                ...      0.14059061 Eh     88.22 kcal/mol

In case the symmetry of your molecule has not been determined correctly
or in case you have a reason to use a different symmetry number we print 
out the resulting rotational entropy values for sn=1,12:

 non-linear molecules -----------------------------------
|  sn= 1 | S(rot)=       0.01853270 Eh     11.63 kcal/mol|
|  sn= 2 | S(rot)=       0.01787824 Eh     11.22 kcal/mol|
|  sn= 3 | S(rot)=       0.01749541 Eh     10.98 kcal/mol|
|  sn= 4 | S(rot)=       0.01722379 Eh     10.81 kcal/mol|
|  sn= 5 | S(rot)=       0.01701310 Eh     10.68 kcal/mol|
|  sn= 6 | S(rot)=       0.01684096 Eh     10.57 kcal/mol|
|  sn= 7 | S(rot)=       0.01669541 Eh     10.48 kcal/mol|
|  sn= 8 | S(rot)=       0.01656933 Eh     10.40 kcal/mol|
|  sn= 9 | S(rot)=       0.01645812 Eh     10.33 kcal/mol|
|  sn=10 | S(rot)=       0.01635864 Eh     10.27 kcal/mol|
|  sn=11 | S(rot)=       0.01626865 Eh     10.21 kcal/mol|
|  sn=12 | S(rot)=       0.01618650 Eh     10.16 kcal/mol|
 linear molecules ---------------------------------------
|  Dinfh | S(rot)=       0.01139938 Eh      7.15 kcal/mol|
|  Cinfv | S(rot)=       0.01205384 Eh      7.56 kcal/mol|
 --------------------------------------------------------


-------------------
GIBBS FREE ENERGY
-------------------

The Gibbs free energy is G = H - T*S

Total enthalpy                    ...  -3244.13218975 Eh 
Total entropy correction          ...     -0.14059061 Eh    -88.22 kcal/mol
-----------------------------------------------------------------------
Final Gibbs free energy         ...  -3244.27278036 Eh

For completeness - the Gibbs free energy minus the electronic energy
G-E(el)                           ...      0.24523833 Eh    153.89 kcal/mol


Maximum memory used throughout the entire PROP-calculation: 131.7 MB

--------------------------------
SUGGESTED CITATIONS FOR THIS RUN
--------------------------------

Below you find a list of papers that are relevant to this ORCA run
We neither can nor want to force you to cite these papers, but we appreciate if you do
You receive ORCA, which is the product of decades of hard work by many enthusiastic individuals, for free
The only thing we kindly ask in return is that you cite our papers,
We deeply appreciate it, if you show your appreciation for ORCA by not just citing the generic ORCA reference.

Please note that relegating all ORCA citations to the supporting information does *not* help us.
SI sections are not indexed - citations you put there will not count into any citation statistics
But we need these citations in order to attract the funding resources that allow us to do what we are doing

Therefore, if you are a happy ORCA user, please consider citing a few of the papers listed below in the main body of your paper

In addition to the list printed below, the program has created the file run.bibtex that contains the list in bibtex format
You can import this file easily into all common literature databanks and citation aid programs


List of essential papers. We consider these as the minimum necessary citations

  1. Neese, F.
     Software update: the ORCA program system, version 6.0
     WIRES Comput. Molec. Sci. 2025 15(1), e70019
     doi.org/10.1002/wcms.7019

List of papers to cite with high priority. The work reported in these papers was absolutely
necessary for this run to complete.
Our perspective: the developers of density functionals and basis sets usually get cited in chemistry papers
Good! But without the algorithms to do something with them, the functionals or basis sets would not do anything.
Hence, in our opinion, the algorithm design and method developments papers are equally worthy of getting cited

  1. Neese, F.
     An improvement of the resolution of the identity approximation for the formation of the Coulomb matrix
     J. Comp. Chem. 2003 24(14), 1740-1747
     doi.org/10.1002/jcc.10318
  2. Grimme, S.; Antony, J.; Ehrlich, S.; Krieg, H.
     A consistent and accurate ab initio parametrization of density functional dispersion correction (DFT-D) for the 94 elements H-Pu
     J. Chem. Phys. 2010 132 , 154104
     doi.org/10.1063/1.3382344
  3. Grimme, S.; Ehrlich, S.; Goerigk, L.
     Effect of the damping function in dispersion corrected density functional theory
     J. Comput. Chem. 2011 32(7), 1456-1465
     doi.org/10.1002/jcc.21759
  4. Bykov, D.; Petrenko, T.; Izsak, R.; Kossmann, S.; Becker, U.; Valeev, E.; Neese, F.
     Efficient implementation of the analytic second derivatives of Hartree-Fock and hybrid DFT energies: a detailed analysis of different approximations
     Molec. Phys. 2015 113 , 1961-1977
     doi.org/10.1080/00268976.2015.1025114
  5. Neese, F.
     The SHARK Integral Generation and Digestion System
     J. Comp. Chem. 2022 44(3), 381
     doi.org/10.1002/jcc.26942

List of suggested additional citations. These are papers that are important in the 'surrounding' of 
of this run, or papers that preceded the highly important papers. If you like your results we are grateful for a citation.

  1. Neese, F.
     The ORCA program system
     WIRES Comput. Molec. Sci. 2012 2(1), 73-78
     doi.org/10.1002/wcms.81
  2. Neese, F.
     Software update: the ORCA program system, version 4.0
     WIRES Comput. Molec. Sci. 2018 8(1), 1-6
     doi.org/10.1002/wcms.1327
  3. Neese, F.; Wennmohs, F.; Becker, U.; Riplinger, C.
     The ORCA quantum chemistry program package
     J. Chem. Phys. 2020 152(22), 224108
     doi.org/10.1063/5.0004608
  4. Neese, F.
     Software update: The ORCA program system—Version 5.0
     WIRES Comput. Molec. Sci. 2022 12(1), e1606
     doi.org/10.1002/wcms.1606

List of optional additional citations

  1. Neese, F.
     Approximate second-order SCF convergence for spin unrestricted wavefunctions
     Chem. Phys. Lett. 2000 325(1-3), 93-98
     doi.org/10.1016/s0009-2614(00)00662-x

Timings for individual modules:

Sum of individual times          ...     5961.482 sec (=  99.358 min)
Startup calculation              ...      239.541 sec (=   3.992 min)   4.0 %
SCF iterations                   ...     1009.095 sec (=  16.818 min)  16.9 %
Property integrals               ...     1593.951 sec (=  26.566 min)  26.7 %
SCF Response                     ...     1128.511 sec (=  18.809 min)  18.9 %
Property calculations            ...     1444.611 sec (=  24.077 min)  24.2 %
SCF Gradient evaluation          ...      537.307 sec (=   8.955 min)   9.0 %
Geometry relaxation              ...        8.467 sec (=   0.141 min)   0.1 %
                             ****ORCA TERMINATED NORMALLY****
TOTAL RUN TIME: 0 days 1 hours 39 minutes 37 seconds 971 msec
