
                                 *****************
                                 * O   R   C   A *
                                 *****************

                                            #,                                       
                                            ###                                      
                                            ####                                     
                                            #####                                    
                                            ######                                   
                                           ########,                                 
                                     ,,################,,,,,                         
                               ,,#################################,,                 
                          ,,##########################################,,             
                       ,#########################################, ''#####,          
                    ,#############################################,,   '####,        
                  ,##################################################,,,,####,       
                ,###########''''           ''''###############################       
              ,#####''   ,,,,##########,,,,          '''####'''          '####       
            ,##' ,,,,###########################,,,                        '##       
           ' ,,###''''                  '''############,,,                           
         ,,##''                                '''############,,,,        ,,,,,,###''
      ,#''                                            '''#######################'''  
     '                                                          ''''####''''         
             ,#######,   #######,   ,#######,      ##                                
            ,#'     '#,  ##    ##  ,#'     '#,    #''#        ,####,    ,#,          
            ##       ##  ##   ,#'  ##            #'  '#       #'       ,# #          
            ##       ##  #######   ##           ,######,      #####,      #          
            '#,     ,#'  ##    ##  '#,     ,#' ,#      #,     #,   #      #          
             '#######'   ##     ##  '#######'  #'      '#     '####' #    #          



                #########################################################
                #                        -***-                          #
                #          Department of theory and spectroscopy        #
                #                                                       #
                #                      Frank Neese                      #
                #                                                       #
                #     Directorship, Architecture, Infrastructure        #
                #                    SHARK, DRIVERS                     #
                #        Core code/Algorithms in most modules           #
                #                                                       #
                #        Max Planck Institute fuer Kohlenforschung      #
                #                Kaiser Wilhelm Platz 1                 #
                #                 D-45470 Muelheim/Ruhr                 #
                #                      Germany                          #
                #                                                       #
                #                  All rights reserved                  #
                #                        -***-                          #
                #########################################################


                         Program Version 6.1.0  -  RELEASE   -
                                (GIT: $679e74b$)
                          ($2025-06-10 18:02:51 +0200$)


 With contributions from (in alphabetic order):
[Max-Planck-Institut fuer Kohlenforschung]                               
  Daniel Aravena         : Magnetic Suceptibility                        
  Michael Atanasov       : Ab Initio Ligand Field Theory (pilot matlab implementation)
  Alexander A. Auer      : GIAO ZORA, VPT2 properties, NMR spectrum      
  Ute Becker             : All parallelization in ORCA, NUMFREQ, NUMCALC 
  Giovanni Bistoni       : ED, misc. LED, open-shell LED, HFLD           
  Dmytro Bykov           : pre 5.0 version of the SCF Hessian            
  Marcos Casanova-Páez   : Triplet and SCS-CIS(D). UHF-(DLPNO)-IP/EA/STEOM-CCSD. UHF-CVS-IP/STEOM-CCSD   
  Vijay G. Chilkuri      : MRCI spin determinant printing, contributions to CSF-ICE 
  Pauline Colinet        : FMM embedding                                 
  Dipayan Datta          : RHF DLPNO-CCSD density                        
  Achintya Kumar Dutta   : EOM-CC, STEOM-CC                              
  Nicolas Foglia         : Exact transition moments, OPA infrastructure, MCD improvements    
  Dmitry Ganyushin       : Spin-Orbit,Spin-Spin,Magnetic field MRCI      
  Miquel Garcia-Rates    : C-PCM and meta-GGA Hessian, CCSD/C-PCM, Gaussian charge scheme 
  Tiago L. C. Gouveia    : GS-ROHF, GS-ROCIS                             
  Yang Guo               : DLPNO-NEVPT2, F12-NEVPT2, CIM, IAO-localization        
  Andreas Hansen         : Spin unrestricted coupled pair/coupled cluster methods 
  Ingolf Harden          : AUTO-CI MPn and infrastructure                
  Benjamin Helmich-Paris : MC-RPA, TRAH-(SCF,CASSCF), AVAS, COSX integrals, SCF dyn. polar., MC-PDFT, srDFT 
  Lee Huntington         : MR-EOM, pCC                                   
  Robert Izsak           : Overlap fitted RIJCOSX, COSX-SCS-MP3, EOM     
  Riya Kayal             : Wick's Theorem for AUTO-CI, AUTO-CI UHF-CCSDT 
  Emily Kempfer          : AUTO-CI RHF CISDT and CCSDT, approximate NEVPT4
  Christian Kollmar      : KDIIS, OOCD, Brueckner-CCSD(T), CCSD density, CASPT2, CASPT2-K, improved NEVPT2 
  Axel Koslowski         : Symmetry handling                             
  Simone Kossmann        : meta-GGA functionals, TD-DFT gradient, OOMP2, (MP2 Hessian; deprecated post 5.0) 
  Lucas Lang             : DCDCAS, Hyperfine gauge corrections, ICE-SOC+SSC
  Marvin Lechner         : AUTO-CI (C++ implementation), FIC-MRCC        
  Spencer Leger          : CASSCF response                               
  Dagmar Lenk            : GEPOL surface, SMD, ORCA-2-JSON               
  Dimitrios Liakos       : Extrapolation schemes; Compound Job, Property file
  Dimitrios Manganas     : Further ROCIS development; embedding schemes. LFT, Crystal Embedding 
  Dimitrios Pantazis     : SARC Basis sets                               
  Anastasios Papadopoulos: AUTO-CI, single reference methods and gradients 
  Taras Petrenko         : pre 6.0 DFT Hessian and TD-DFT gradient,  ECA, NRVS 
  Petra Pikulova         : Analytic Raman intensities                    
  Peter Pinski           : DLPNO-MP2, DLPNO-MP2 Gradient                 
  Shashank Vittal Rao    : ES-AILFT, MagRelax                            
  Christoph Reimann      : Effective Core Potentials                     
  Marius Retegan         : Local ZFS, SOC                                
  Christoph Riplinger    : Optimizer, TS searches, QM/MM, DLPNO-CCSD(T), (RO)-DLPNO pert. Triples 
  Michael Roemelt        : Original ROCIS implementation, recursive CI coupling coefficients
  Masaaki Saitow         : Open-shell DLPNO-CCSD energy and density      
  Barbara Sandhoefer     : DKH picture change effects                    
  Yorick L. A. Schmerwitz: GMF and freeze-and-release deltaSCF, NEB S-IDPP initial path                    
  Kantharuban Sivalingam : CASSCF convergence/infrastructure, NEVPT2, NEVPT3, NEVPT4(SD), FIC-MRCI and CEPA variants
  Bernardo de Souza      : ESD, SOC TD-DFT                               
  Georgi L. Stoychev     : AutoAux, RI-MP2 NMR, DLPNO-MP2 response, X2C  
  Van Anh Tran           : RI-MP2 g-tensors                              
  Willem Van den Heuvel  : Paramagnetic NMR                              
  Zikuan Wang            : NOTCH, Electric field optimization            
  Frank Wennmohs         : Technical directorship and infrastructure     
  Hang Xu                : AUTO-CI-Response properties                   
                                                                         
[FACCTs GmbH]                                                            
  Markus Bursch, Nicolas Foglia, Miquel Garcia-Rates, Ingolf Harden, Hagen Neugebauer, Anastasios Papadopoulos, 
  Christoph Riplinger, Bernardo de Souza, Georgi L. Stoychev                                                    
                                                                 
  APM, various basis sets, CI-OPT, improved COSX, DLPNO-Multilevel,           
  DOCKER, DRACO, updates on ESD, Fragmentator, GOAT, IRC, LR-CPCM, L-BFGS, MBIS, meta-GGA TD-DFT gradient, ML-optimized integration grids, 
  MM, NACMEs, nearIR, NEB, NEB-TS, NL-DFT gradient (VV10), 2- and 3-layer-ONIOM, interface openCOSMO-RS, QMMM,   
  Crystal-QMMM, RESP, rigid body optimization, SF, symmetry and pop. for TD-DFT, various functionals, SOLVATOR                                   
                                                                         
[Other institutions]                                                     
  V. Asgeirsson          : NEB                                           
  Christoph Bannwarth    : sTDA-DFT, sTD-DFT, PBEh-3c, B97-3c, D3        
  Giovanni Bistoni       : ETS/NOCV, ADLD/ADEX, COVALED                  
  Martin Brehm           : Molecular dynamics                            
  Ronald Cardenas        : ETS/NOCV                                      
  Martina Colucci        : COVALED                                       
  Sebastian Ehlert       : rSCAN, r2SCAN, r2SCAN-3c, D4, dhf basis sets  
  Marvin Friede          : D4 for Fr, Ra, Ac-Lr                          
  Lars Goerigk           : TD-DFT with DH, B97 family of functionals     
  Stefan Grimme          : VdW corrections, initial TS optimization, DFT functionals, gCP, sTDA/sTD-DF 
  Waldemar Hujo          : DFT-NL                                        
  H. Jonsson             : NEB                                           
  Holger Kruse           : gCP                                           
  Marcel Mueller         : wB97X-3c, vDZP basis set                      
  Hagen Neugebauer       : wr2SCAN, Native XTB                           
  Gianluca Regni         : ADLD/ADEX                                     
  Tobias Risthaus        : pre 6.0 range-separated hybrid DFT and stability analysis
  Lukas Wittmann         : regularized MP2, r2SCAN double-hybrids, wr2SCAN        
                                                                         
We gratefully acknowledge several colleagues who have allowed us to      
interface, adapt or use parts of their codes:                            
  Ed Valeev, F. Pavosevic, A. Kumar             : LibInt (2-el integral package), F12 methods 
  Garnet Chan, S. Sharma, J. Yang, R. Olivares  : DMRG                   
  Ulf Ekstrom                                   : XCFun DFT Library      
  Mihaly Kallay                                 : mrcc  (arbitrary order and MRCC methods)
  Frank Weinhold                                : gennbo (NPA and NBO analysis)           
  Simon Mueller                                 : openCOSMO-RS                            
  Christopher J. Cramer and Donald G. Truhlar   : smd solvation model                     
  S Lehtola, MJT Oliveira, MAL Marques          : LibXC Library                           
  Liviu Ungur et al                             : ANISO software                          


 Your calculation uses the libint2 library for the computation of 2-el integrals
 For citations please refer to: http://libint.valeyev.net

 Your ORCA version has been built with support for libXC version: 7.0.0
 For citations please refer to: https://libxc.gitlab.io

 This ORCA versions uses:
   CBLAS   interface :  Fast vector & matrix operations
   LAPACKE interface :  Fast linear algebra routines
   SCALAPACK package :  Parallel linear algebra routines
   Shared memory     :  Shared parallel matrices
   BLAS/LAPACK       :  OpenBLAS 0.3.29  USE64BITINT DYNAMIC_ARCH NO_AFFINITY Zen SINGLE_THREADED
        Core in use  :  Zen
   Copyright (c) 2011-2014, The OpenBLAS Project


  ***********************************
  * Starting time: Sat Aug 16 12:28:18 2025
  * Host name:     gadolinium01
  * Process ID:    879613
  * Working dir.:  /local/scratch/mehlhorn/62055
  ***********************************



***************************************
The coordinates will be read from file: run.xyz
***************************************


Your calculation utilizes the geometrical counterpoise correction gCP
Please cite in your paper:
H.Kruse, S. Grimme J.Chem.Phys., 136, (2012), 154101 
   

Your calculation utilizes the atom-pairwise dispersion correction
with the Becke-Johnson damping scheme (D3BJ)


Warning: RI is on but no J-basis has been assigned. Assigning Def2/J (nothing to worry about!)
================================================================================

cite the ECPs for Zr [Def2-ECP] as follows:
Ce-Yb(ecp-28): M. Dolg, H. Stoll, H.Preuss, J. Chem. Phys., 1989, 90, 1730-1734.
Y-Cd(ecp-28), Hf-Hg(ecp-46): D. Andrae,U. Haeussermann, M. Dolg, H. Stoll, H. Preuss, Theor. Chim. Acta, 1990, 77, 123-141.
In-Sb(ecp-28), Tl-Bi(ecp-46): B. Metz, H. Stoll, M. Dolg, J. Chem. Phys., 2000, 113, 2563-2569.
Te-Xe(ecp-28), Po-Rn(ecp-46): K. A. Peterson, D. Figgen, E. Goll, H. Stoll, M. Dolg, J. Chem. Phys., 2003, 119, 11113-11123.
Rb(ecp-28), Cs(ecp-46): T. Leininger, A. Nicklass, W. Kuechle, H. Stoll, M. Dolg, A. Bergner, Chem. Phys. Lett., 1996, 255, 274-280.
Sr(ecp-28), Ba(ecp-46): M. Kaupp, P. V. Schleyer, H. Stoll and H. Preuss, J. Chem. Phys., 1991, 94, 1360-1366.
La(ecp-46): M. Dolg, H. Stoll, A. Savin, H. Preuss, Theor. Chim. Acta, 1989, 75, 173-194.
Lu(ecp-28): X. Cao, M. Dolg, J. Chem. Phys., 2001, 115, 7348-7355.

ECP parameters for Zr [Def2-ECP] have been obtained from:
TURBOMOLE (7.0.2)

----- Orbital basis set information -----
Your calculation utilizes the basis: def2-SV(P)
   F. Weigend and R. Ahlrichs, Phys. Chem. Chem. Phys. 7, 3297 (2005).

----- AuxJ basis set information -----
Your calculation utilizes the auxiliary basis: def2/J
   H-Rn: F. Weigend, Phys. Chem. Chem. Phys. 8, 1057 (2006).
   Fr-Lr: K. Eichkorn, F. Weigend, O. Treutler, R. Ahlrichs; Theor. Chem. Acc. 97, 119 (1997).

================================================================================
                                        WARNINGS
                       Please study these warnings very carefully!
================================================================================


================================================================================
                                       INPUT FILE
================================================================================
NAME = run.inp
|  1> # Geometry optimization for (AlH3)n cluster
|  2> 
|  3> %pal nprocs 24  end
|  4> 
|  5> %geom MaxIter 500 end
|  6> 
|  7> 
|  8> ! PBE def2-SV(P)
|  9> ! RKS	# closed shell for AlH3
| 10> ! D3    #  dispersion correction
| 11> ! gCP(DFT/SV(P))
| 12> 
| 13> 
| 14> ! NoPop # population analysis not necessary	
| 15> 
| 16> ! DEFGRID2
| 17> ! NormalSCF
| 18> 
| 19> ! SmallPrint
| 20> 
| 21> 
| 22> * xyzFile 0 1 run.xyz # only maingroup elements H and Al so there should be no net spin
| 23> 
| 24>                          ****END OF INPUT****
================================================================================

                       ****************************
                       * Single Point Calculation *
                       ****************************

---------------------------------
CARTESIAN COORDINATES (ANGSTROEM)
---------------------------------
  Zr    -0.175301    2.187269    1.599776
  Zr     0.333373   -2.173814   -1.108836
  Zr     2.026596   -1.096749    1.608388
  Zr    -1.856875    1.126689   -1.133236
  Zr     1.510229    0.961604   -1.754931
  Zr    -1.343213   -0.956090    2.205176
  O     -1.396660    0.631761    0.881934
  O      1.555219   -0.603995   -0.402872
  O      0.149219   -1.751896    0.986911
  O      0.026977    1.761691   -0.506019
  O     -0.292542   -0.209383   -1.806860
  O      0.448135    0.220798    2.286989
  O     -0.805213    2.196633    3.477271
  O     -1.773969    3.338410    1.339131
  O      1.636628    2.400636    2.465852
  O      0.750195    3.748078    0.599372
  O     -0.545555   -3.759630   -0.100243
  O     -1.502877   -2.389114   -1.914744
  O      1.955680   -3.299563   -0.863074
  O      0.927249   -2.202604   -2.992133
  O      1.752323   -1.647174    3.498225
  O      2.963655    0.478706    2.377865
  O      2.439554   -3.036994    1.397832
  O      3.761481   -0.965091    0.481785
  O     -3.589679    1.019203   -0.019032
  O     -2.245622    3.072549   -0.923925
  O     -2.809256   -0.452606   -1.881529
  O     -1.577658    1.674863   -3.021348
  O      0.692974    2.208193   -3.062706
  O      2.214392    2.710160   -0.922209
  O      1.894023   -0.114681   -3.363297
  O      3.475509    0.491923   -1.341656
  O     -3.309931   -0.543421    1.718111
  O     -1.804225    0.116057    3.789998
  O     -2.001294   -2.755155    1.451657
  O     -0.522589   -2.157185    3.557845
  C     -1.450464    1.306707    4.168920
  C     -2.310770    3.706467    0.211277
  C      2.697564    1.700374    2.715472
  C      1.730302    3.713144   -0.251334
  C     -1.514391   -3.745001    0.763782
  C     -2.562958   -1.690360   -2.170898
  C      2.495596   -3.671031    0.262316
  C      1.565760   -1.324124   -3.704270
  C      0.690804   -2.182554    4.025777
  C      4.158409   -0.244665   -0.520744
  C     -3.990677    0.230852    0.929258
  C     -0.520050    2.233871   -3.533723
  H     -3.358457   -2.218033   -2.688869
  H      3.058863   -4.606978    0.250952
  H      3.476607    2.212846    3.272408
  H     -2.880901    4.638276    0.220556
  H      1.860245   -1.638847   -4.705468
  H     -0.666573    2.785304   -4.464230
  H      2.226763    4.664730   -0.421073
  H      5.225802   -0.274385   -0.712563
  H     -1.995997   -4.704256    0.931609
  H     -5.062960    0.229037    1.094956
  H     -1.714276    1.586309    5.188841
  H      0.834573   -2.713859    4.967786
  Al    -5.237359   -3.136499    1.289731
  Al    -7.351354   -0.953622    2.657147
  Al    -3.868911   -3.305985    4.256455
  Al    -4.992256   -0.342241    4.764736
  Al    -2.658691   -1.945852    6.284699
  Al    -4.744680   -0.814993    7.824063
  Al    -4.846577    1.825628    7.161835
  H     -4.441185   -2.563463    0.029671
  H     -5.899444   -4.545074    0.939190
  H     -7.712745    0.234396    1.655135
  H     -8.658002   -1.683477    3.210490
  H     -6.359786   -2.038837    1.861973
  H     -4.229154   -3.320433    2.609284
  H     -3.816281   -4.912307    4.376890
  H     -2.601771   -2.264336    4.628822
  H     -3.300364   -1.652996    7.804316
  H     -3.498405   -0.737205    5.436412
  H     -3.853763   -3.082784    5.924616
  H     -1.233059   -1.196249    6.382703
  H     -4.401899    0.731982    8.340689
  H     -3.391429    2.408353    6.825647
  H     -6.406191    2.005510    7.490166
  H     -5.027086    1.071987    5.671546
  H     -6.450243   -0.352233    3.929739
  H     -4.860993   -1.929927    4.218002
  H     -4.332976    0.486505    3.560203
  H     -5.466599   -0.858832    6.296792
  H     -5.741380   -1.540528    8.854142

----------------------------
CARTESIAN COORDINATES (A.U.)
----------------------------
  NO LB      ZA    FRAG     MASS         X           Y           Z
   0 Zr   12.0000*   0    91.220   -0.331272    4.133339    3.023139
   1 Zr   12.0000*   0    91.220    0.629984   -4.107913   -2.095397
   2 Zr   12.0000*   0    91.220    3.829711   -2.072556    3.039412
   3 Zr   12.0000*   0    91.220   -3.508984    2.129134   -2.141506
   4 Zr   12.0000*   0    91.220    2.853920    1.817169   -3.316338
   5 Zr   12.0000*   0    91.220   -2.538305   -1.806749    4.167179
   6 O     8.0000    0    15.999   -2.639305    1.193856    1.666614
   7 O     8.0000    0    15.999    2.938938   -1.141385   -0.761318
   8 O     8.0000    0    15.999    0.281983   -3.310603    1.864992
   9 O     8.0000    0    15.999    0.050979    3.329114   -0.956237
  10 O     8.0000    0    15.999   -0.552824   -0.395676   -3.414470
  11 O     8.0000    0    15.999    0.846853    0.417249    4.321784
  12 O     8.0000    0    15.999   -1.521631    4.151035    6.571090
  13 O     8.0000    0    15.999   -3.352315    6.308680    2.530591
  14 O     8.0000    0    15.999    3.092778    4.536544    4.659784
  15 O     8.0000    0    15.999    1.417663    7.082840    1.132648
  16 O     8.0000    0    15.999   -1.030949   -7.104671   -0.189431
  17 O     8.0000    0    15.999   -2.840026   -4.514771   -3.618342
  18 O     8.0000    0    15.999    3.695700   -6.235270   -1.630974
  19 O     8.0000    0    15.999    1.752246   -4.162318   -5.654312
  20 O     8.0000    0    15.999    3.311410   -3.112709    6.610687
  21 O     8.0000    0    15.999    5.600496    0.904623    4.493514
  22 O     8.0000    0    15.999    4.610089   -5.739087    2.641520
  23 O     8.0000    0    15.999    7.108169   -1.823757    0.910441
  24 O     8.0000    0    15.999   -6.783510    1.926014   -0.035965
  25 O     8.0000    0    15.999   -4.243610    5.806277   -1.745965
  26 O     8.0000    0    15.999   -5.308725   -0.855301   -3.555575
  27 O     8.0000    0    15.999   -2.981342    3.165032   -5.709521
  28 O     8.0000    0    15.999    1.309532    4.172880   -5.787676
  29 O     8.0000    0    15.999    4.184594    5.121461   -1.742723
  30 O     8.0000    0    15.999    3.579185   -0.216716   -6.355710
  31 O     8.0000    0    15.999    6.567760    0.929600   -2.535362
  32 O     8.0000    0    15.999   -6.254863   -1.026917    3.246759
  33 O     8.0000    0    15.999   -3.409492    0.219315    7.162059
  34 O     8.0000    0    15.999   -3.781897   -5.206489    2.743234
  35 O     8.0000    0    15.999   -0.987550   -4.076489    6.723352
  36 C     6.0000    0    12.011   -2.740980    2.469318    7.878117
  37 C     6.0000    0    12.011   -4.366723    7.004208    0.399256
  38 C     6.0000    0    12.011    5.097657    3.213241    5.131498
  39 C     6.0000    0    12.011    3.269797    7.016825   -0.474952
  40 C     6.0000    0    12.011   -2.861783   -7.077026    1.443339
  41 C     6.0000    0    12.011   -4.843289   -3.194318   -4.102403
  42 C     6.0000    0    12.011    4.715994   -6.937243    0.495705
  43 C     6.0000    0    12.011    2.958857   -2.502231   -7.000056
  44 C     6.0000    0    12.011    1.305431   -4.124430    7.607615
  45 C     6.0000    0    12.011    7.858254   -0.462350   -0.984063
  46 C     6.0000    0    12.011   -7.541287    0.436248    1.756043
  47 C     6.0000    0    12.011   -0.982751    4.221405   -6.677769
  48 H     1.0000    0     1.008   -6.346565   -4.191475   -5.081226
  49 H     1.0000    0     1.008    5.780414   -8.705927    0.474231
  50 H     1.0000    0     1.008    6.569834    4.181673    6.183954
  51 H     1.0000    0     1.008   -5.444114    8.765071    0.416791
  52 H     1.0000    0     1.008    3.515354   -3.096972   -8.892046
  53 H     1.0000    0     1.008   -1.259641    5.263462   -8.436173
  54 H     1.0000    0     1.008    4.207972    8.815062   -0.795713
  55 H     1.0000    0     1.008    9.875335   -0.518513   -1.346549
  56 H     1.0000    0     1.008   -3.771887   -8.889755    1.760485
  57 H     1.0000    0     1.008   -9.567607    0.432818    2.069167
  58 H     1.0000    0     1.008   -3.239513    2.997690    9.805489
  59 H     1.0000    0     1.008    1.577115   -5.128449    9.387755
  60 Al   13.0000    0    26.982   -9.897175   -5.927124    2.437238
  61 Al   13.0000    0    26.982  -13.892045   -1.802085    5.021281
  62 Al   13.0000    0    26.982   -7.311182   -6.247406    8.043533
  63 Al   13.0000    0    26.982   -9.433997   -0.646742    9.004046
  64 Al   13.0000    0    26.982   -5.024198   -3.677127   11.876359
  65 Al   13.0000    0    26.982   -8.966146   -1.540113   14.785336
  66 Al   13.0000    0    26.982   -9.158702    3.449937   13.533907
  67 H     1.0000    0     1.008   -8.392623   -4.844242    0.056070
  68 H     1.0000    0     1.008  -11.148334   -8.588945    1.774813
  69 H     1.0000    0     1.008  -14.574975    0.442945    3.127751
  70 H     1.0000    0     1.008  -16.361253   -3.181310    6.066946
  71 H     1.0000    0     1.008  -12.018254   -3.852843    3.518619
  72 H     1.0000    0     1.008   -7.991943   -6.274710    4.930833
  73 H     1.0000    0     1.008   -7.211725   -9.282916    8.271124
  74 H     1.0000    0     1.008   -4.916634   -4.278975    8.747207
  75 H     1.0000    0     1.008   -6.236785   -3.123709   14.748020
  76 H     1.0000    0     1.008   -6.611028   -1.393116   10.273329
  77 H     1.0000    0     1.008   -7.282557   -5.825617   11.195902
  78 H     1.0000    0     1.008   -2.330143   -2.260583   12.061561
  79 H     1.0000    0     1.008   -8.318383    1.383245   15.761618
  80 H     1.0000    0     1.008   -6.408873    4.551128   12.898603
  81 H     1.0000    0     1.008  -12.105946    3.789865   14.154363
  82 H     1.0000    0     1.008   -9.499816    2.025762   10.717669
  83 H     1.0000    0     1.008  -12.189193   -0.665623    7.426131
  84 H     1.0000    0     1.008   -9.185945   -3.647034    7.970869
  85 H     1.0000    0     1.008   -8.188139    0.919362    6.727809
  86 H     1.0000    0     1.008  -10.330376   -1.622957   11.899212
  87 H     1.0000    0     1.008  -10.849636   -2.911176   16.731904
* core charge reduced due to ECP

--------------------------------
INTERNAL COORDINATES (ANGSTROEM)
--------------------------------
 Zr     0   0   0     0.000000000000     0.00000000     0.00000000
 Zr     1   0   0     5.158912137895     0.00000000     0.00000000
 Zr     2   1   0     3.377925196659    50.02450028     0.00000000
 Zr     1   2   3     3.379626463563    50.14806725   179.45811423
 Zr     2   1   3     3.410758701530    49.93707436   260.20138092
 Zr     1   2   3     3.407525917257    49.25162933   279.55157217
 O      6   1   2     2.067631391194    35.58393174   299.20819151
 O      5   2   1     2.069103059112    35.72262019    59.93945952
 O      3   2   1     2.083265238174    37.63054314    68.01143622
 O      4   1   2     2.084592327481    37.94914372   292.27272114
 O      5   2   1     2.150323421411    38.25142755   284.05624305
 O      6   1   2     2.144921666744    38.22205076    76.26460818
 O      1   2   3     1.980369075480   122.21661841   293.85267771
 O      1   2   3     1.987158475514   120.01062435   193.44355064
 O      1   2   3     2.019578864874   103.06188827    23.76915876
 O      1   2   3     2.072070744152   109.83046380   101.38065260
 O      2   1   3     2.074750087957   110.43411189    77.18444034
 O      2   1   3     2.016842868211   102.13806312   154.59832906
 O      2   1   3     1.989871841183   119.58998032   345.40397443
 O      2   1   3     1.974923446861   122.86422002   244.96659271
 O      3   2   1     1.987379725632   127.40445294   100.55500703
 O      3   2   1     1.988022487145   143.15920917   312.85204823
 O      3   2   1     1.994848183278    73.06636649   165.87016135
 O      3   2   1     2.072774827274    90.14826597   245.65776962
 O      4   1   2     2.062914465060    89.85783647   114.69735395
 O      4   1   2     1.995321433866    72.90676854   194.52738404
 O      4   1   2     1.990263125106   142.29331253    48.02419881
 O      4   1   2     1.985805583794   127.75612699   259.30396075
 O      5   2   1     1.982968886764   124.09886504   257.69787477
 O      5   2   1     2.060756661478   145.22126437    32.76553846
 O      5   2   1     1.972949634836    73.74345509   187.66469756
 O      5   2   1     2.062454892787    94.67376628   107.84115033
 O      6   1   2     2.067729890839    95.74187969   254.28805311
 O      6   1   2     1.968169930976    73.78940223   174.52293131
 O      6   1   2     2.058518037927   148.29271755   329.80800753
 O      6   1   2     1.986394875498   122.49142508   104.15653155
 C     34   6   1     1.298605430669   132.11389092   349.37346079
 C     26   4   1     1.301837072688   125.17626387   328.16392559
 C     22   3   2     1.295088779736   138.72925082    60.62097551
 C     16   1   2     1.298279552174   129.29271898   334.30732730
 C     17   2   1     1.298227946400   129.12915207    26.08551683
 C     27   4   1     1.294771250253   138.72638619   301.12106862
 C     23   3   2     1.301744898069   125.07989844    31.42875221
 C     20   2   1     1.298677243072   131.36859198    19.53460538
 C     21   3   2     1.300678278362   127.75766619   338.92419943
 C     24   3   2     1.296775838606   135.37128742    65.33610784
 C     25   4   1     1.296745580461   133.34595372   289.68980400
 C     28   4   1     1.301366441828   127.38714422    19.38961556
 H     42  27   4     1.086071503293   115.57646227   186.76428541
 H     43  23   3     1.092427093541   116.65201421   159.11449195
 H     39  22   3     1.086145564446   115.55504903   170.10358080
 H     38  26   4     1.092429784519   116.67119694   202.29563811
 H     44  20   2     1.090032070079   116.17965124   173.96791358
 H     48  28   4     1.091508549344   116.33141364   201.66392535
 H     40  16   1     1.086646310688   115.06826127   196.88556292
 H     46  24   3     1.084899102818   115.00009086   165.74053761
 H     41  17   2     1.086407023631   115.06762451   162.57102385
 H     47  25   4     1.085010889689   114.72744688   198.72700635
 H     37  34   6     1.089960063643   116.25110800   190.89926791
 H     45  21   3     1.091025105731   116.30199811   160.09276802
 Al    33   6   1     3.259224562787   115.76379430   166.08684434
 Al    58  47  25     3.012618671884   146.15416906   177.33934954
 Al    61  33   6     3.271517348666    71.01377207    55.65965463
 Al    63  61  33     3.209989121968    87.09826403    53.26072892
 Al    63  61  33     2.725503028335   146.58708650    21.07673319
 Al    65  63  61     2.828397735928   106.08495307    82.73250162
 Al    66  65  63     2.724299306015   106.42916207   256.96636880
 H     61  33   6     1.596877016523    61.53379757   270.69179466
 H     61  33   6     1.595405358638   167.61774460   323.02383320
 H     62  58  47     1.595625350907    63.52033011   175.51662282
 H     62  58  47     1.595683360990   168.92889737   243.39387670
 H     61  33   6     1.670977519770    80.18839259   149.34512037
 H     61  33   6     1.670787541141    68.09474032    42.11789518
 H     63  61  33     1.611690706028    97.64631496   210.54710946
 H     63  61  33     1.682062422390   118.93248145   348.13650636
 H     66  65  63     1.669936282276    32.33381635   134.29922158
 H     64  63  61     1.684854489278    62.38076849   215.42844809
 H     63  61  33     1.683095927782   153.59617922    96.87023796
 H     65  63  61     1.613671910172   132.01373432   292.73650888
 H     66  65  63     1.666593034518   112.83932824   220.06564797
 H     67  66  65     1.603135853254   111.67564326   326.43228432
 H     67  66  65     1.603918559100    95.46951980   152.43735692
 H     67  66  65     1.679738160770    77.57277191    56.12225980
 H     62  58  47     1.671275005044    81.02686185    58.47836987
 H     64  63  61     1.684308464471    18.37854388    34.02766524
 H     64  63  61     1.603861134577   102.37508768   302.56176837
 H     64  63  61     1.684951759825    87.67440588   136.23135529
 H     66  65  63     1.606510723560   128.75310478    74.74663299

---------------------------
INTERNAL COORDINATES (A.U.)
---------------------------
 Zr     0   0   0     0.000000000000     0.00000000     0.00000000
 Zr     1   0   0     9.748931089583     0.00000000     0.00000000
 Zr     2   1   0     6.383353522557    50.02450028     0.00000000
 Zr     1   2   3     6.386568451087    50.14806725   179.45811423
 Zr     2   1   3     6.445399854781    49.93707436   260.20138092
 Zr     1   2   3     6.439290777855    49.25162933   279.55157217
 O      6   1   2     3.907257075256    35.58393174   299.20819151
 O      5   2   1     3.910038124581    35.72262019    59.93945952
 O      3   2   1     3.936800764467    37.63054314    68.01143622
 O      4   1   2     3.939308599812    37.94914372   292.27272114
 O      5   2   1     4.063522365823    38.25142755   284.05624305
 O      6   1   2     4.053314528860    38.22205076    76.26460818
 O      1   2   3     3.742355196744   122.21661841   293.85267771
 O      1   2   3     3.755185303422   120.01062435   193.44355064
 O      1   2   3     3.816450960467   103.06188827    23.76915876
 O      1   2   3     3.915646236557   109.83046380   101.38065260
 O      2   1   3     3.920709462567   110.43411189    77.18444034
 O      2   1   3     3.811280676071   102.13806312   154.59832906
 O      2   1   3     3.760312821437   119.58998032   345.40397443
 O      2   1   3     3.732064450027   122.86422002   244.96659271
 O      3   2   1     3.755603405553   127.40445294   100.55500703
 O      3   2   1     3.756818048781   143.15920917   312.85204823
 O      3   2   1     3.769716745146    73.06636649   165.87016135
 O      3   2   1     3.916976760833    90.14826597   245.65776962
 O      4   1   2     3.898343376667    89.85783647   114.69735395
 O      4   1   2     3.770611059149    72.90676854   194.52738404
 O      4   1   2     3.761052240893   142.29331253    48.02419881
 O      4   1   2     3.752628708583   127.75612699   259.30396075
 O      5   2   1     3.747268128070   124.09886504   257.69787477
 O      5   2   1     3.894265718847   145.22126437    32.76553846
 O      5   2   1     3.728334485860    73.74345509   187.66469756
 O      5   2   1     3.897474910934    94.67376628   107.84115033
 O      6   1   2     3.907443212608    95.74187969   254.28805311
 O      6   1   2     3.719302154563    73.78940223   174.52293131
 O      6   1   2     3.890035333418   148.29271755   329.80800753
 O      6   1   2     3.753742308516   122.49142508   104.15653155
 C     34   6   1     2.454008619987   132.11389092   349.37346079
 C     26   4   1     2.460115538367   125.17626387   328.16392559
 C     22   3   2     2.447363112816   138.72925082    60.62097551
 C     16   1   2     2.453392798879   129.29271898   334.30732730
 C     17   2   1     2.453295278099   129.12915207    26.08551683
 C     27   4   1     2.446763069054   138.72638619   301.12106862
 C     23   3   2     2.459941353580   125.07989844    31.42875221
 C     20   2   1     2.454144325762   131.36859198    19.53460538
 C     21   3   2     2.457925734444   127.75766619   338.92419943
 C     24   3   2     2.450551192051   135.37128742    65.33610784
 C     25   4   1     2.450494012443   133.34595372   289.68980400
 C     28   4   1     2.459226174930   127.38714422    19.38961556
 H     42  27   4     2.052377703080   115.57646227   186.76428541
 H     43  23   3     2.064388028068   116.65201421   159.11449195
 H     39  22   3     2.052517658376   115.55504903   170.10358080
 H     38  26   4     2.064393113279   116.67119694   202.29563811
 H     44  20   2     2.059862089641   116.17965124   173.96791358
 H     48  28   4     2.062652231094   116.33141364   201.66392535
 H     40  16   1     2.053463931636   115.06826127   196.88556292
 H     46  24   3     2.050162187263   115.00009086   165.74053761
 H     41  17   2     2.053011744630   115.06762451   162.57102385
 H     47  25   4     2.050373433834   114.72744688   198.72700635
 H     37  34   6     2.059726017196   116.25110800   190.89926791
 H     45  21   3     2.061738655064   116.30199811   160.09276802
 Al    33   6   1     6.159041832617   115.76379430   166.08684434
 Al    58  47  25     5.693024235798   146.15416906   177.33934954
 Al    61  33   6     6.182271831351    71.01377207    55.65965463
 Al    63  61  33     6.066000333387    87.09826403    53.26072892
 Al    63  61  33     5.150454300726   146.58708650    21.07673319
 Al    65  63  61     5.344897118707   106.08495307    82.73250162
 Al    66  65  63     5.148179595201   106.42916207   256.96636880
 H     61  33   6     3.017660230782    61.53379757   270.69179466
 H     61  33   6     3.014879200417   167.61774460   323.02383320
 H     62  58  47     3.015294925555    63.52033011   175.51662282
 H     62  58  47     3.015404548726   168.92889737   243.39387670
 H     61  33   6     3.157689888304    80.18839259   149.34512037
 H     61  33   6     3.157330880724    68.09474032    42.11789518
 H     63  61  33     3.045654046979    97.64631496   210.54710946
 H     63  61  33     3.178637318477   118.93248145   348.13650636
 H     66  65  63     3.155722234600    32.33381635   134.29922158
 H     64  63  61     3.183913560243    62.38076849   215.42844809
 H     63  61  33     3.180590360627   153.59617922    96.87023796
 H     65  63  61     3.049397980226   132.01373432   292.73650888
 H     66  65  63     3.149404411939   112.83932824   220.06564797
 H     67  66  65     3.029487718120   111.67564326   326.43228432
 H     67  66  65     3.030966817812    95.46951980   152.43735692
 H     67  66  65     3.174245100553    77.57277191    56.12225980
 H     62  58  47     3.158252054001    81.02686185    58.47836987
 H     64  63  61     3.182881722896    18.37854388    34.02766524
 H     64  63  61     3.030858301191   102.37508768   302.56176837
 H     64  63  61     3.184097374938    87.67440588   136.23135529
 H     66  65  63     3.035865298736   128.75310478    74.74663299

---------------------
BASIS SET INFORMATION
---------------------
There are 5 groups of distinct atoms

 Group   1 Type Zr  : 7s6p5d contracted to 5s3p2d pattern {31111/411/41}
 Group   2 Type O   : 7s4p1d contracted to 3s2p1d pattern {511/31/1}
 Group   3 Type C   : 7s4p1d contracted to 3s2p1d pattern {511/31/1}
 Group   4 Type H   : 4s contracted to 2s pattern {31}
 Group   5 Type Al  : 10s7p1d contracted to 4s3p1d pattern {5311/511/1}

Atom   0Zr   basis set group =>   1
Atom   1Zr   basis set group =>   1
Atom   2Zr   basis set group =>   1
Atom   3Zr   basis set group =>   1
Atom   4Zr   basis set group =>   1
Atom   5Zr   basis set group =>   1
Atom   6O    basis set group =>   2
Atom   7O    basis set group =>   2
Atom   8O    basis set group =>   2
Atom   9O    basis set group =>   2
Atom  10O    basis set group =>   2
Atom  11O    basis set group =>   2
Atom  12O    basis set group =>   2
Atom  13O    basis set group =>   2
Atom  14O    basis set group =>   2
Atom  15O    basis set group =>   2
Atom  16O    basis set group =>   2
Atom  17O    basis set group =>   2
Atom  18O    basis set group =>   2
Atom  19O    basis set group =>   2
Atom  20O    basis set group =>   2
Atom  21O    basis set group =>   2
Atom  22O    basis set group =>   2
Atom  23O    basis set group =>   2
Atom  24O    basis set group =>   2
Atom  25O    basis set group =>   2
Atom  26O    basis set group =>   2
Atom  27O    basis set group =>   2
Atom  28O    basis set group =>   2
Atom  29O    basis set group =>   2
Atom  30O    basis set group =>   2
Atom  31O    basis set group =>   2
Atom  32O    basis set group =>   2
Atom  33O    basis set group =>   2
Atom  34O    basis set group =>   2
Atom  35O    basis set group =>   2
Atom  36C    basis set group =>   3
Atom  37C    basis set group =>   3
Atom  38C    basis set group =>   3
Atom  39C    basis set group =>   3
Atom  40C    basis set group =>   3
Atom  41C    basis set group =>   3
Atom  42C    basis set group =>   3
Atom  43C    basis set group =>   3
Atom  44C    basis set group =>   3
Atom  45C    basis set group =>   3
Atom  46C    basis set group =>   3
Atom  47C    basis set group =>   3
Atom  48H    basis set group =>   4
Atom  49H    basis set group =>   4
Atom  50H    basis set group =>   4
Atom  51H    basis set group =>   4
Atom  52H    basis set group =>   4
Atom  53H    basis set group =>   4
Atom  54H    basis set group =>   4
Atom  55H    basis set group =>   4
Atom  56H    basis set group =>   4
Atom  57H    basis set group =>   4
Atom  58H    basis set group =>   4
Atom  59H    basis set group =>   4
Atom  60Al   basis set group =>   5
Atom  61Al   basis set group =>   5
Atom  62Al   basis set group =>   5
Atom  63Al   basis set group =>   5
Atom  64Al   basis set group =>   5
Atom  65Al   basis set group =>   5
Atom  66Al   basis set group =>   5
Atom  67H    basis set group =>   4
Atom  68H    basis set group =>   4
Atom  69H    basis set group =>   4
Atom  70H    basis set group =>   4
Atom  71H    basis set group =>   4
Atom  72H    basis set group =>   4
Atom  73H    basis set group =>   4
Atom  74H    basis set group =>   4
Atom  75H    basis set group =>   4
Atom  76H    basis set group =>   4
Atom  77H    basis set group =>   4
Atom  78H    basis set group =>   4
Atom  79H    basis set group =>   4
Atom  80H    basis set group =>   4
Atom  81H    basis set group =>   4
Atom  82H    basis set group =>   4
Atom  83H    basis set group =>   4
Atom  84H    basis set group =>   4
Atom  85H    basis set group =>   4
Atom  86H    basis set group =>   4
Atom  87H    basis set group =>   4
---------------------------------
AUXILIARY/J BASIS SET INFORMATION
---------------------------------
There are 5 groups of distinct atoms

 Group   1 Type Zr  : 11s5p5d3f3g contracted to 8s5p5d2f3g pattern {41111111/11111/11111/21/111}
 Group   2 Type O   : 12s5p4d2f1g contracted to 6s4p3d1f1g pattern {711111/2111/211/2/1}
 Group   3 Type C   : 12s5p4d2f1g contracted to 6s4p3d1f1g pattern {711111/2111/211/2/1}
 Group   4 Type H   : 5s2p1d contracted to 3s1p1d pattern {311/2/1}
 Group   5 Type Al  : 14s5p5d2f1g contracted to 8s4p3d1f1g pattern {71111111/2111/311/2/1}

Atom   0Zr   basis set group =>   1
Atom   1Zr   basis set group =>   1
Atom   2Zr   basis set group =>   1
Atom   3Zr   basis set group =>   1
Atom   4Zr   basis set group =>   1
Atom   5Zr   basis set group =>   1
Atom   6O    basis set group =>   2
Atom   7O    basis set group =>   2
Atom   8O    basis set group =>   2
Atom   9O    basis set group =>   2
Atom  10O    basis set group =>   2
Atom  11O    basis set group =>   2
Atom  12O    basis set group =>   2
Atom  13O    basis set group =>   2
Atom  14O    basis set group =>   2
Atom  15O    basis set group =>   2
Atom  16O    basis set group =>   2
Atom  17O    basis set group =>   2
Atom  18O    basis set group =>   2
Atom  19O    basis set group =>   2
Atom  20O    basis set group =>   2
Atom  21O    basis set group =>   2
Atom  22O    basis set group =>   2
Atom  23O    basis set group =>   2
Atom  24O    basis set group =>   2
Atom  25O    basis set group =>   2
Atom  26O    basis set group =>   2
Atom  27O    basis set group =>   2
Atom  28O    basis set group =>   2
Atom  29O    basis set group =>   2
Atom  30O    basis set group =>   2
Atom  31O    basis set group =>   2
Atom  32O    basis set group =>   2
Atom  33O    basis set group =>   2
Atom  34O    basis set group =>   2
Atom  35O    basis set group =>   2
Atom  36C    basis set group =>   3
Atom  37C    basis set group =>   3
Atom  38C    basis set group =>   3
Atom  39C    basis set group =>   3
Atom  40C    basis set group =>   3
Atom  41C    basis set group =>   3
Atom  42C    basis set group =>   3
Atom  43C    basis set group =>   3
Atom  44C    basis set group =>   3
Atom  45C    basis set group =>   3
Atom  46C    basis set group =>   3
Atom  47C    basis set group =>   3
Atom  48H    basis set group =>   4
Atom  49H    basis set group =>   4
Atom  50H    basis set group =>   4
Atom  51H    basis set group =>   4
Atom  52H    basis set group =>   4
Atom  53H    basis set group =>   4
Atom  54H    basis set group =>   4
Atom  55H    basis set group =>   4
Atom  56H    basis set group =>   4
Atom  57H    basis set group =>   4
Atom  58H    basis set group =>   4
Atom  59H    basis set group =>   4
Atom  60Al   basis set group =>   5
Atom  61Al   basis set group =>   5
Atom  62Al   basis set group =>   5
Atom  63Al   basis set group =>   5
Atom  64Al   basis set group =>   5
Atom  65Al   basis set group =>   5
Atom  66Al   basis set group =>   5
Atom  67H    basis set group =>   4
Atom  68H    basis set group =>   4
Atom  69H    basis set group =>   4
Atom  70H    basis set group =>   4
Atom  71H    basis set group =>   4
Atom  72H    basis set group =>   4
Atom  73H    basis set group =>   4
Atom  74H    basis set group =>   4
Atom  75H    basis set group =>   4
Atom  76H    basis set group =>   4
Atom  77H    basis set group =>   4
Atom  78H    basis set group =>   4
Atom  79H    basis set group =>   4
Atom  80H    basis set group =>   4
Atom  81H    basis set group =>   4
Atom  82H    basis set group =>   4
Atom  83H    basis set group =>   4
Atom  84H    basis set group =>   4
Atom  85H    basis set group =>   4
Atom  86H    basis set group =>   4
Atom  87H    basis set group =>   4
-------------------------
ECP PARAMETER INFORMATION
-------------------------

 Group 1, Type Zr ECP Def2-ECP (replacing 28 core electrons, lmax=3)

Atom   0Zr   ECP group =>   1
Atom   1Zr   ECP group =>   1
Atom   2Zr   ECP group =>   1
Atom   3Zr   ECP group =>   1
Atom   4Zr   ECP group =>   1
Atom   5Zr   ECP group =>   1


Checking for AutoStart:
The File: run.gbw exists
Trying to determine its content:
     ... Fine, the file contains calculation information
     ... Fine, the calculation information was read
     ... Fine, the file contains a basis set
     ... Fine, the basis set was read
     ... Fine, the file contains ECP parameters
     ... Fine, ECP parameters were read
     ... Fine, the file contains a geometry
     ... Fine, the geometry was read
     ... The file does not contain orbitals - skipping AutoStart


           ************************************************************
           *        Program running with 24 parallel MPI-processes    *
           *              working on a common directory               *
           ************************************************************
------------------------------------------------------------------------------
                             ORCA STARTUP CALCULATIONS
                           -- RI-GTO INTEGRALS CHOSEN --
------------------------------------------------------------------------------
------------------------------------------------------------------------------
                   ___                                                        
                  /   \      - P O W E R E D   B Y -                         
                 /     \                                                     
                 |  |  |   _    _      __       _____    __    __             
                 |  |  |  | |  | |    /  \     |  _  \  |  |  /  |          
                  \  \/   | |  | |   /    \    | | | |  |  | /  /          
                 / \  \   | |__| |  /  /\  \   | |_| |  |  |/  /          
                |  |  |   |  __  | /  /__\  \  |    /   |      \           
                |  |  |   | |  | | |   __   |  |    \   |  |\   \          
                \     /   | |  | | |  |  |  |  | |\  \  |  | \   \       
                 \___/    |_|  |_| |__|  |__|  |_| \__\ |__|  \__/        
                                                                              
                      - O R C A' S   B I G   F R I E N D -                    
                                      &                                       
                       - I N T E G R A L  F E E D E R -                       
                                                                              
 v1 FN, 2020, v2 2021, v3 2022-2024                                           
------------------------------------------------------------------------------


----------------------
SHARK INTEGRAL PACKAGE
----------------------

Number of atoms                             ...     88
Number of basis functions                   ...    924
Number of shells                            ...    434
Maximum angular momentum                    ...      2
Integral batch strategy                     ... SHARK/LIBINT Hybrid
RI-J (if used) integral strategy            ... SPLIT-RIJ (Revised 2003 algorithm where possible)
Printlevel                                  ...      1
Contraction scheme used                     ... SEGMENTED contraction
Prescreening option                         ... SCHWARTZ
   Thresh                                   ... 1.000e-10
   Tcut                                     ... 1.000e-11
   Tpresel                                  ... 1.000e-11 
Coulomb Range Separation                    ... NOT USED
Exchange Range Separation                   ... NOT USED
Multipole approximations                    ... NOT USED
Finite Nucleus Model                        ... NOT USED
CABS basis                                  ... NOT available
Auxiliary Coulomb fitting basis             ... AVAILABLE
   # of basis functions in Aux-J            ...   3312
   # of shells in Aux-J                     ...   1052
   Maximum angular momentum in Aux-J        ...      4
Auxiliary J/K fitting basis                 ... NOT available
Auxiliary Correlation fitting basis         ... NOT available
Auxiliary 'external' fitting basis          ... NOT available

Checking pre-screening integrals            ... done (  0.0 sec) Dimension = 434
   => SHARK Basis and OBASIS are compatible. Storing Pre-screening
Shell pair information
Shell pair cut-off parameter TPreSel        ...   1.0e-11
Total number of shell pairs                 ...     94395
Shell pairs after pre-screening             ...     56607
Total number of primitive shell pairs       ...    379781
Primitive shell pairs kept                  ...    125944
          la=0 lb=0:  17428 shell pairs
          la=1 lb=0:  19522 shell pairs
          la=1 lb=1:   5553 shell pairs
          la=2 lb=0:   8244 shell pairs
          la=2 lb=1:   4830 shell pairs
          la=2 lb=2:   1030 shell pairs

Checking whether 4 symmetric matrices of dimension 924 fit in memory
:Max Core in MB      =   4096.00
 MB in use           =     72.76
 MB left             =   4023.24
 MB needed           =     13.04
 Data fit in memory  = YES
Calculating RI/J V-Matrix + Cholesky decomp.... done (  0.5 sec)
Calculating Nuclear repulsion               ... done (  0.0 sec) ENN=  13747.951740986357 Eh

Diagonalization of the overlap matrix:
Smallest eigenvalue                        ... 2.725e-04
Time for diagonalization                   ...    0.289 sec
Threshold for overlap eigenvalues          ... 1.000e-07
Number of eigenvalues below threshold      ... 0
Time for construction of square roots      ...    0.189 sec
Total time needed                          ...    0.486 sec

-------------------
DFT GRID GENERATION
-------------------

General Integration Accuracy     IntAcc      ... 4.388
Radial Grid Type                 RadialGrid  ... OptM3 with GC (2021)
Angular Grid (max. ang.)         AngularGrid ... 4 (Lebedev-302)
Angular grid pruning method      GridPruning ... 4 (adaptive)
Weight generation scheme         WeightScheme... mBecke (2022)
Basis function cutoff            BFCut       ... 1.0000e-10
Integration weight cutoff        WCut        ... 1.0000e-14
Partially contracted basis set               ... off
Rotationally invariant grid construction     ... off
Angular grids for H and He will be reduced by one unit

Total number of grid points                  ...   452245
Total number of batches                      ...     7113
Average number of points per batch           ...       63
Average number of grid points per atom       ...     5139
Grids setup in   4.5 sec
Initializing property integral containers    ... done (  0.0 sec)

SHARK setup successfully completed in   7.8 seconds

Maximum memory used throughout the entire STARTUP-calculation: 149.9 MB


           ************************************************************
           *        Program running with 24 parallel MPI-processes    *
           *              working on a common directory               *
           ************************************************************
-------------------------------------------------------------------------------
                                 ORCA GUESS
                   Start orbitals & Density for SCF / CASSCF
-------------------------------------------------------------------------------

------------
SCF SETTINGS
------------
Hamiltonian:
 Density Functional     Method          .... DFT(GTOs)
 Exchange Functional    Exchange        .... PBE
   PBE kappa parameter   XKappa         ....  0.804000
   PBE mue parameter    XMuePBE         ....  0.219520
 Correlation Functional Correlation     .... PBE
   PBE beta parameter  CBetaPBE         ....  0.066725
 LDA part of GGA corr.  LDAOpt          .... PW91-LDA
 Gradients option       PostSCFGGA      .... off
   NL short-range parameter             ....  6.400000
 RI-approximation to the Coulomb term is turned on
   Number of AuxJ basis functions       .... 3312


General Settings:
 Integral files         IntName         .... run
 Hartree-Fock type      HFTyp           .... RHF
 Total Charge           Charge          ....    0
 Multiplicity           Mult            ....    1
 Number of Electrons    NEL             ....  508
 Basis Dimension        Dim             ....  924
 Nuclear Repulsion      ENuc            ....  13747.9517409864 Eh

Convergence Acceleration:
 AO-DIIS                CNVDIIS         .... on
   Start iteration      DIISMaxIt       ....    12
   Startup error        DIISStart       ....  0.200000
   # of expansion vecs  DIISMaxEq       ....     5
   Bias factor          DIISBfac        ....   1.050
   Max. coefficient     DIISMaxC        ....  10.000
 MO-DIIS                CNVKDIIS        .... off
 Trust-Rad. Augm. Hess. CNVTRAH         .... auto
   Auto Start mean grad. ratio tolernc. ....  1.125000
   Auto Start start iteration           ....    50
   Auto Start num. interpolation iter.  ....    10
   Max. Number of Micro iterations      ....    24
   Max. Number of Macro iterations      .... Maxiter - #DIIS iter
   Number of Davidson start vectors     ....     2
   Converg. threshold    (grad. norm)   ....   5.000e-05
   Grad. Scal. Fac. for Micro threshold ....   0.100
   Minimum threshold for Micro iter.    ....   1.000e-02
   NR start threshold (gradient norm)   ....   1.000e-04
   Initial trust radius                 ....   0.400
   Minimum AH scaling param. (alpha)    ....   1.000
   Maximum AH scaling param. (alpha)    .... 1000.000
   Quad. conv. algorithm                .... NR
   White noise on init. David. guess    .... on
   Maximum white noise                  ....   0.010
   Pseudo random numbers                .... off
   Inactive MOs                         .... canonical
   Orbital update algorithm             .... Taylor
   Preconditioner                       .... Diag
   Full preconditioner red. dimension   ....   250
 SOSCF                 CNVSOSCF           .... on
   Start iteration     SOSCFMaxIt         ....   150
   Startup grad/error  SOSCFStart         ....  0.003300
   Hessian update      SOSCFHessUp        .... L-BFGS
   Autom. constraints  SOSCFAutoConstrain .... off
 Level Shifting         CNVShift        .... on
   Level shift para.    LevelShift      ....    0.2500
   Turn off err/grad.   ShiftErr        ....    0.0010
 Zerner damping         CNVZerner       .... off
 Static damping         CNVDamp         .... on
   Fraction old density DampFac         ....    0.7000
   Max. Damping (<1)    DampMax         ....    0.9800
   Min. Damping (>=0)   DampMin         ....    0.0000
   Turn off err/grad.   DampErr         ....    0.1000

SCF Procedure:
 Maximum # iterations   MaxIter         ....   125
 SCF integral mode      SCFMode         .... Direct
   Integral package                     .... SHARK and LIBINT hybrid scheme
 Reset frequency        DirectResetFreq ....    20
 Integral Threshold     Thresh          ....  1.000e-10 Eh
 Primitive CutOff       TCut            ....  1.000e-11 Eh

Convergence Tolerance:
 Convergence Check Mode ConvCheckMode   .... Total+1el-Energy
 Convergence forced     ConvForced      .... 0
 Energy Change          TolE            ....  1.000e-06 Eh
 1-El. energy change                    ....  1.000e-03 Eh
 Orbital Gradient       TolG            ....  5.000e-05
 Orbital Rotation angle TolX            ....  5.000e-05
 DIIS Error             TolErr          ....  1.000e-05

------------------------------
INITIAL GUESS: MODEL POTENTIAL
------------------------------
Loading Hartree-Fock densities                     ... done
Atomic calculation to generate a density for atom 0 (Zr with ECP)
  Multiplicity assumed   :    3
  Atomic configuration   : 1s2 2s2 2p6 3s2 3p6 4s2 3d10 4p6 4d2 5s2 
  Number of open shells  : 2
  Command: /home/mehlhorn/programs/orca6/orca run_atom40.inp "" > run_atom40.out
Returned from the atomic calculation with res=0
Calculating cut-offs                               ... done
Initializing the effective Hamiltonian             ... done
Setting up the integral package (SHARK)            ... done
Starting the Coulomb interaction                   ... done (   0.9 sec)
Making the grid                                    ... done (   1.1 sec)
Mapping shells                                     ... done
Starting the XC term evaluation                    ... done (   0.2 sec)
  promolecular density results
     # of electrons  =    676.008696165
     EX              =  -1103.563235626
     EC              =    -27.407885679
     EX+EC           =  -1130.971121305
Transforming the Hamiltonian                       ... done (   0.2 sec)
Diagonalizing the Hamiltonian                      ... done (   0.3 sec)
Back transforming the eigenvectors                 ... done (   0.1 sec)
Now organizing SCF variables                       ... done
                      ------------------
                      INITIAL GUESS DONE (   6.6 sec)
                      ------------------
             **** ENERGY FILE WAS UPDATED (run.en.tmp) ****
Finished Guess after   7.5 sec
Maximum memory used throughout the entire GUESS-calculation: 94.4 MB


           ************************************************************
           *        Program running with 24 parallel MPI-processes    *
           *              working on a common directory               *
           ************************************************************

-------------------------------------------------------------------------------------------
                                      ORCA LEAN-SCF
                              memory conserving SCF solver
-------------------------------------------------------------------------------------------

----------------------------------------D-I-I-S--------------------------------------------
Iteration    Energy (Eh)           Delta-E    RMSDP     MaxDP     DIISErr   Damp  Time(sec)
-------------------------------------------------------------------------------------------
               ***  Starting incremental Fock matrix formation  ***
    1    -4647.9954617517269071     0.00e+00  4.06e+00  2.52e+02  6.15e-01  0.700   3.5
Warning: op=0 Small HOMO/LUMO gap ( -15.072) - skipping pre-diagonalization
         LevelShift set to 1.000 Eh
         Will do a full diagonalization
    2    -4386.9708788576081133     2.61e+02  1.33e+00  7.56e+01  8.86e-01  0.700   4.3
    3    -4464.8946237326035771    -7.79e+01  9.31e-01  4.20e+01  6.84e-01  0.700   3.4
    4    -4477.5483000105978135    -1.27e+01  9.52e-01  4.53e+01  4.81e-01  0.700   3.4
    5    -4492.6013515301474399    -1.51e+01  4.35e-01  1.80e+01  5.32e-01  0.700   3.5
    6    -4469.1005878683918127     2.35e+01  5.51e-01  2.98e+01  6.74e-01  0.700   3.4
    7    -4459.5625877936199686     9.54e+00  7.63e-01  4.85e+01  5.44e-01  0.700   3.3
    8    -4396.2939340533866925     6.33e+01  5.64e-01  3.54e+01  6.82e-01  0.700   3.3
    9    -4409.0140434005315910    -1.27e+01  3.40e-01  9.39e+00  6.18e-01  0.700   3.2
   10    -4419.8725019427711231    -1.09e+01  4.00e-01  2.62e+01  6.05e-01  0.700   3.4
   11    -4482.2925863650507381    -6.24e+01  3.02e-01  8.91e+00  4.87e-01  0.700   3.3
   12    -4503.5980957485389808    -2.13e+01  4.95e-01  2.22e+01  4.88e-01  0.700   3.3
                               ***Turning on AO-DIIS***
   13    -4508.1043354344164982    -4.51e+00  3.01e-01  1.59e+01  5.09e-01  0.700   3.3
   14    -4443.8782240609161818     6.42e+01  2.42e-01  8.99e+00  8.62e-01  0.700   3.3
   15    -4374.7449612467371480     6.91e+01  2.10e-01  8.80e+00  1.08e+00  0.700   3.3
   16    -4321.4830684868520621     5.33e+01  1.82e-01  6.87e+00  1.19e+00  0.700   3.3
   17    -4286.9523175312515377     3.45e+01  3.32e-01  1.73e+01  1.49e+00  0.700   3.3
   18    -4564.8051841925571352    -2.78e+02  2.07e+00  1.24e+02  6.82e-01  0.700   3.4
   19    -4461.7235063118296239     1.03e+02  4.32e-01  1.49e+01  6.60e-01  0.700   3.4
   20    -4444.1145169778883428     1.76e+01  3.93e-01  1.87e+01  9.74e-01  0.700   3.4
               *** Restarting incremental Fock matrix formation ***
                             ****Resetting DIIS****
Warning: op=0 Small HOMO/LUMO gap ( -10.744) - skipping pre-diagonalization
         LevelShift set to 1.000 Eh
         Will do a full diagonalization
   21    -4460.1373598572699848    -1.60e+01  6.12e-01  2.95e+01  1.13e+00  0.700   4.3
   22    -4490.9020691954083304    -3.08e+01  3.59e-01  2.02e+01  6.19e-01  0.700   3.4
   23    -4551.9090273191122833    -6.10e+01  2.66e-01  1.42e+01  4.64e-01  0.700   3.4
   24    -4590.7067680952077353    -3.88e+01  1.92e-01  1.00e+01  4.90e-01  0.700   3.4
   25    -4611.4155440907034063    -2.07e+01  1.38e-01  7.10e+00  6.74e-01  0.700   3.3
   26    -4625.0530316134481836    -1.36e+01  1.07e-01  3.32e+00  6.56e-01  0.700   3.3
   27    -4583.2688882719176036     4.18e+01  9.58e-02  2.85e+00  9.79e-01  0.700   3.3
   28    -4523.0487770269155590     6.02e+01  1.20e-01  6.28e+00  1.06e+00  0.700   3.3
   29    -4517.9396821097852808     5.11e+00  1.43e-01  8.06e+00  1.06e+00  0.700   3.3
   30    -4565.6355583842032502    -4.77e+01  1.10e-01  5.22e+00  8.17e-01  0.700   3.4
   31    -4594.4677746013785509    -2.88e+01  1.21e-01  3.63e+00  7.68e-01  0.700   3.3
   32    -4608.2991691010447539    -1.38e+01  1.50e-01  5.27e+00  7.43e-01  0.700   3.3
   33    -4607.2149873566031602     1.08e+00  1.29e-01  5.03e+00  8.46e-01  0.700   3.3
   34    -4590.6325629757466231     1.66e+01  9.01e-02  3.24e+00  9.20e-01  0.700   3.3
   35    -4607.4703784588255076    -1.68e+01  8.12e-02  2.33e+00  7.60e-01  0.700   3.3
   36    -4611.3897090913105785    -3.92e+00  2.06e-01  1.34e+01  9.13e-01  0.700   3.4
   37    -4581.4832470351957454     2.99e+01  2.88e-01  1.58e+01  1.26e+00  0.700   3.4
   38    -4530.0446109963431809     5.14e+01  2.59e-01  1.40e+01  1.19e+00  0.700   3.4
   39    -4476.9878841336958430     5.31e+01  1.45e-01  5.44e+00  1.12e+00  0.700   3.3
   40    -4466.0501893302698591     1.09e+01  2.58e-01  1.16e+01  1.13e+00  0.700   3.3
               *** Restarting incremental Fock matrix formation ***
                             ****Resetting DIIS****
Warning: op=0 Small HOMO/LUMO gap (  -9.388) - skipping pre-diagonalization
         LevelShift set to 1.000 Eh
         Will do a full diagonalization
   41    -4513.3344436095594574    -4.73e+01  6.67e-01  3.08e+01  1.08e+00  0.700   4.3
   42    -4513.6357622939813155    -3.01e-01  2.58e-01  1.28e+01  5.43e-01  0.700   3.4
   43    -4551.1356087993608526    -3.75e+01  1.95e-01  9.80e+00  5.92e-01  0.700   3.3
   44    -4592.3390833675894100    -4.12e+01  1.39e-01  7.10e+00  6.63e-01  0.700   3.4
   45    -4618.5474756031453580    -2.62e+01  1.01e-01  5.29e+00  5.08e-01  0.700   3.3
   46    -4636.1981436831283645    -1.77e+01  8.06e-02  3.90e+00  5.18e-01  0.700   3.3
   47    -4643.7387105760080885    -7.54e+00  2.14e-01  1.75e+01  5.11e-01  0.700   3.3
   48    -4635.7903855841195764     7.95e+00  1.66e-01  1.37e+01  7.03e-01  0.700   3.3
   49    -4602.9219766211699607     3.29e+01  1.15e-01  8.51e+00  8.74e-01  0.700   3.3
   50    -4577.4793562376271439     2.54e+01  6.11e-02  2.20e+00  9.67e-01  0.700   3.3

       ******************************************************************************
       ***                                                                        ***
       ***                               Auto-TRAH                                ***
       ***                               ---------                                ***
       *** the maximum gradient error decreased on average only by a factor   0.9 ***
       *** during the last  10 iterations                                         ***
       ***                                                                        ***
       ***               Leaving SCF to start the TRAH-SCF procedure              ***
       ***                                                                        ***
       ******************************************************************************

 --------------------------------------------------------------------------------------------
   Iter.        energy            ||Error||_2        Shift      TRadius  Mac/Mic        Rej.
 --------------------------------------------------------------------------------------------
    0      -4367.658376508429     5.954179e+01                     0.400 (TRAH MAcro)   No
WARNING: 67479 diagonal Hessian elements are negative!
WARNING : negative HOMO - LUMO gap : -14.239600
WARNING : negative HOMO - LUMO gap : -14.239600
    0     dE    -2.339831e+01     8.822785e-01    -1.4458e+02      0.400 (TRAH MIcro)
    0     dE    -2.340099e+01     1.183341e-02    -1.4479e+02      0.400 (TRAH MIcro)
    0     dE    -2.340101e+01     1.966932e-04    -1.4479e+02      0.400 (TRAH MIcro)
    1      -4390.973539059400     5.727846e+01                     0.480 (TRAH MAcro)   No
WARNING: 65918 diagonal Hessian elements are negative!
WARNING : negative HOMO - LUMO gap : -13.732974
WARNING : negative HOMO - LUMO gap : -13.732974
    1     dE    -2.708252e+01     1.157770e+00    -1.1706e+02      0.480 (TRAH MIcro)
    1     dE    -2.708844e+01     1.792055e-02    -1.1740e+02      0.480 (TRAH MIcro)
    1     dE    -2.708846e+01     3.803401e-04    -1.1740e+02      0.480 (TRAH MIcro)
    2      -4417.898203637727     5.534018e+01                     0.576 (TRAH MAcro)   No
WARNING: 63972 diagonal Hessian elements are negative!
WARNING : negative HOMO - LUMO gap : -13.108668
WARNING : negative HOMO - LUMO gap : -13.108668
    2     dE    -3.168189e+01     1.547745e+00    -9.6617e+01      0.576 (TRAH MIcro)
    2     dE    -3.169507e+01     3.139446e-02    -9.7153e+01      0.576 (TRAH MIcro)
    2     dE    -3.169504e+01     7.170182e-04    -9.7149e+01      0.576 (TRAH MIcro)
    3      -4449.258265722036     5.423572e+01                     0.691 (TRAH MAcro)   No
WARNING: 61533 diagonal Hessian elements are negative!
WARNING : negative HOMO - LUMO gap : -12.321073
WARNING : negative HOMO - LUMO gap : -12.321073
    3     dE    -3.777100e+01     2.069342e+00    -8.1588e+01      0.691 (TRAH MIcro)
    3     dE    -3.779888e+01     5.545162e-02    -8.2320e+01      0.691 (TRAH MIcro)
    3     dE    -3.779889e+01     1.677563e-03    -8.2311e+01      0.691 (TRAH MIcro)
    4      -4486.336980419753     5.381566e+01                     0.829 (TRAH MAcro)   No
WARNING: 58255 diagonal Hessian elements are negative!
WARNING : negative HOMO - LUMO gap : -11.308539
WARNING : negative HOMO - LUMO gap : -11.308539
    4     dE    -4.509300e+01     2.802513e+00    -6.8094e+01      0.829 (TRAH MIcro)
    4     dE    -4.515387e+01     9.751043e-02    -6.9045e+01      0.829 (TRAH MIcro)
    4     dE    -4.515388e+01     3.940144e-03    -6.9031e+01      0.829 (TRAH MIcro)
    5      -4530.050151789053     5.217448e+01                     0.995 (TRAH MAcro)   No
WARNING: 53772 diagonal Hessian elements are negative!
WARNING : negative HOMO - LUMO gap : -9.972532
WARNING : negative HOMO - LUMO gap : -9.972532
    5     dE    -5.124260e+01     4.021380e+00    -5.2884e+01      0.995 (TRAH MIcro)
    5     dE    -5.140186e+01     2.169973e-01    -5.4317e+01      0.995 (TRAH MIcro)
    5     dE    -5.140238e+01     1.098264e-02    -5.4286e+01      0.995 (TRAH MIcro)
    5     dE    -5.140238e+01     5.618165e-04    -5.4286e+01      0.995 (TRAH MIcro)
    6      -4578.916378604476     4.669118e+01                     1.194 (TRAH MAcro)   No
WARNING: 47342 diagonal Hessian elements are negative!
WARNING : negative HOMO - LUMO gap : -8.316124
WARNING : negative HOMO - LUMO gap : -8.316124
    6     dE    -4.227856e+01     3.949240e+00    -4.3563e+01      0.970 (TRAH MIcro)
    6     dE    -4.349110e+01     2.685983e-01    -4.3743e+01      0.994 (TRAH MIcro)
    6     dE    -4.353159e+01     1.788172e-02    -4.3744e+01      0.995 (TRAH MIcro)
    6     dE    -4.353261e+01     1.020376e-03    -4.3744e+01      0.995 (TRAH MIcro)
    7      -4620.259467456362     3.731335e+01                     1.433 (TRAH MAcro)   No
WARNING: 39421 diagonal Hessian elements are negative!
WARNING : negative HOMO - LUMO gap : -6.657887
WARNING : negative HOMO - LUMO gap : -6.657887
    7     dE    -2.985288e+01     4.590014e+00    -3.2654e+01      0.910 (TRAH MIcro)
    7     dE    -3.137307e+01     4.179913e-01    -3.2973e+01      0.950 (TRAH MIcro)
    7     dE    -3.142776e+01     3.782587e-02    -3.2976e+01      0.952 (TRAH MIcro)
    7     dE    -3.142908e+01     2.949864e-03    -3.2976e+01      0.952 (TRAH MIcro)
    8      -4650.139466645423     2.687412e+01                     1.720 (TRAH MAcro)   No
WARNING: 30854 diagonal Hessian elements are negative!
WARNING : negative HOMO - LUMO gap : -5.151161
WARNING : negative HOMO - LUMO gap : -5.151161
    8     dE    -1.936434e+01     5.325284e+00    -2.2143e+01      0.865 (TRAH MIcro)
    8     dE    -2.237060e+01     6.589391e-01    -2.2773e+01      0.982 (TRAH MIcro)
    8     dE    -2.239415e+01     9.346617e-02    -2.2781e+01      0.983 (TRAH MIcro)
    8     dE    -2.236764e+01     1.136730e-02    -2.2781e+01      0.982 (TRAH MIcro)
    8     dE    -2.236445e+01     1.101386e-03    -2.2781e+01      0.982 (TRAH MIcro)
    9      -4670.939958682776     1.792540e+01                     2.064 (TRAH MAcro)   No
WARNING: 20980 diagonal Hessian elements are negative!
WARNING : negative HOMO - LUMO gap : -3.712432
WARNING : negative HOMO - LUMO gap : -3.712432
    9     dE    -1.259355e+01     6.064401e+00    -1.4432e+01      0.863 (TRAH MIcro)
    9     dE    -1.885004e+01     1.221918e+00    -1.5426e+01      1.202 (TRAH MIcro)
    9     dE    -1.894357e+01     2.325909e-01    -1.5502e+01      1.202 (TRAH MIcro)
    9     dE    -1.874850e+01     4.022094e-02    -1.5504e+01      1.191 (TRAH MIcro)
    9     dE    -1.868726e+01     9.078513e-03    -1.5504e+01      1.188 (TRAH MIcro)
   10      -4686.146839983594     1.069798e+01                     2.477 (TRAH MAcro)   No
WARNING: 8433 diagonal Hessian elements are negative!
WARNING : negative HOMO - LUMO gap : -2.014743
WARNING : negative HOMO - LUMO gap : -2.014743
   10     dE    -6.230991e+00     5.481956e+00    -7.7558e+00      0.779 (TRAH MIcro)
   10     dE    -1.226088e+01     5.309881e+00    -7.8304e+00      1.460 (TRAH MIcro)
   10     dE    -9.799053e+00     1.376578e+00    -8.6944e+00      1.120 (TRAH MIcro)
   10     dE    -9.497608e+00     4.806700e-01    -8.7953e+00      1.077 (TRAH MIcro)
   10     dE    -9.337532e+00     9.658487e-02    -8.8028e+00      1.059 (TRAH MIcro)
   10     dE    -9.313229e+00     1.890457e-02    -8.8031e+00      1.056 (TRAH MIcro)
   10     dE    -9.307011e+00     4.925831e-03    -8.8031e+00      1.056 (TRAH MIcro)
   11      -4694.165548748699     6.338123e+00                     2.972 (TRAH MAcro)   No
WARNING: 1977 diagonal Hessian elements are negative!
WARNING : negative HOMO - LUMO gap : -0.705987
WARNING : negative HOMO - LUMO gap : -0.705987
   11     dE    -3.783183e+00     3.548581e+00    -4.7311e+00      0.774 (TRAH MIcro)
   11     dE    -4.518225e+00     1.312163e+00    -5.1705e+00      0.865 (TRAH MIcro)
   11     dE    -4.678368e+00     3.695292e-01    -5.2339e+00      0.888 (TRAH MIcro)
   11     dE    -4.695005e+00     9.920090e-02    -5.2389e+00      0.890 (TRAH MIcro)
   11     dE    -4.697448e+00     2.529941e-02    -5.2393e+00      0.891 (TRAH MIcro)
   11     dE    -4.697811e+00     5.639616e-03    -5.2393e+00      0.891 (TRAH MIcro)
   12      -4698.769744876482     4.390711e+00                     3.566 (TRAH MAcro)   No
WARNING: 755 diagonal Hessian elements are negative!
WARNING : negative HOMO - LUMO gap : -0.443929
WARNING : negative HOMO - LUMO gap : -0.443929
   12     dE    -3.090328e+00     1.957795e+00    -3.5908e+00      0.849 (TRAH MIcro)
   12     dE    -3.362258e+00     8.496050e-01    -3.7395e+00      0.893 (TRAH MIcro)
   12     dE    -3.428128e+00     2.482700e-01    -3.7661e+00      0.906 (TRAH MIcro)
   12     dE    -3.436316e+00     8.013752e-02    -3.7686e+00      0.908 (TRAH MIcro)
   12     dE    -3.438102e+00     2.185559e-02    -3.7688e+00      0.908 (TRAH MIcro)
   12     dE    -3.438367e+00     5.434099e-03    -3.7689e+00      0.908 (TRAH MIcro)
   13      -4702.140014712867     3.215663e+00                     4.280 (TRAH MAcro)   No
WARNING: 347 diagonal Hessian elements are negative!
WARNING : negative HOMO - LUMO gap : -0.339621
WARNING : negative HOMO - LUMO gap : -0.339621
   13     dE    -2.376881e+00     1.141415e+00    -2.6958e+00      0.874 (TRAH MIcro)
   13     dE    -2.484875e+00     4.911784e-01    -2.7562e+00      0.896 (TRAH MIcro)
   13     dE    -2.505100e+00     1.549600e-01    -2.7657e+00      0.901 (TRAH MIcro)
   13     dE    -2.508471e+00     5.693594e-02    -2.7668e+00      0.902 (TRAH MIcro)
   13     dE    -2.509359e+00     1.623808e-02    -2.7670e+00      0.902 (TRAH MIcro)
   13     dE    -2.509426e+00     4.668114e-03    -2.7670e+00      0.902 (TRAH MIcro)
   14      -4704.588221327250     2.307968e+00                     5.136 (TRAH MAcro)   No
WARNING: 172 diagonal Hessian elements are negative!
WARNING : negative HOMO - LUMO gap : -0.269563
WARNING : negative HOMO - LUMO gap : -0.269563
   14     dE    -1.695290e+00     7.950805e-01    -1.9048e+00      0.883 (TRAH MIcro)
   14     dE    -1.751324e+00     2.891880e-01    -1.9380e+00      0.899 (TRAH MIcro)
   14     dE    -1.758783e+00     1.071387e-01    -1.9418e+00      0.901 (TRAH MIcro)
   14     dE    -1.760744e+00     4.091214e-02    -1.9423e+00      0.902 (TRAH MIcro)
   14     dE    -1.761161e+00     1.134076e-02    -1.9424e+00      0.902 (TRAH MIcro)
   14     dE    -1.761172e+00     3.992028e-03    -1.9424e+00      0.902 (TRAH MIcro)
   15      -4706.292805200243     1.577444e+00                     6.163 (TRAH MAcro)   No
WARNING: 60 diagonal Hessian elements are negative!
WARNING : negative HOMO - LUMO gap : -0.214675
WARNING : negative HOMO - LUMO gap : -0.214675
   15     dE    -1.159116e+00     6.218486e-01    -1.2766e+00      0.903 (TRAH MIcro)
   15     dE    -1.195996e+00     1.881349e-01    -1.2991e+00      0.917 (TRAH MIcro)
   15     dE    -1.199264e+00     7.594255e-02    -1.3010e+00      0.918 (TRAH MIcro)
   15     dE    -1.200111e+00     2.958681e-02    -1.3013e+00      0.919 (TRAH MIcro)
   15     dE    -1.200265e+00     8.386954e-03    -1.3014e+00      0.919 (TRAH MIcro)
   16      -4707.417959150935     9.822604e-01                     7.395 (TRAH MAcro)   No
WARNING: 11 diagonal Hessian elements are negative!
WARNING : negative HOMO - LUMO gap : -0.105937
WARNING : negative HOMO - LUMO gap : -0.105937
   16     dE    -6.963766e-01     5.487479e-01    -7.4185e-01      0.937 (TRAH MIcro)
   16     dE    -7.208721e-01     1.574181e-01    -7.5978e-01      0.947 (TRAH MIcro)
   16     dE    -7.238529e-01     6.049348e-02    -7.6147e-01      0.949 (TRAH MIcro)
   16     dE    -7.237025e-01     2.143335e-02    -7.6170e-01      0.949 (TRAH MIcro)
   16     dE    -7.237614e-01     7.278809e-03    -7.6173e-01      0.949 (TRAH MIcro)
   17      -4708.025200424318     4.634432e-01                     8.874 (TRAH MAcro)   No
WARNING : small    HOMO - LUMO gap : 0.016226
WARNING : small    HOMO - LUMO gap : 0.016226
   17     dE    -1.169831e-01     3.586626e-01    -1.9209e-01      0.467 (TRAH MIcro)
   17     dE    -1.274544e-01     8.774187e-02    -2.0432e-01      0.498 (TRAH MIcro)
   17     dE    -1.281256e-01     2.746425e-02    -2.0500e-01      0.500 (TRAH MIcro)
   17     dE    -1.281203e-01     1.293441e-02    -2.0508e-01      0.499 (TRAH MIcro)
   17     dE    -1.281360e-01     4.397085e-03    -2.0510e-01      0.500 (TRAH MIcro)
   18      -4708.150011088758     1.611324e-01                    10.649 (TRAH MAcro)   No
   18     dE    -5.198068e-03     1.429115e-01    -1.0305e-02      0.094 (TRAH MIcro)
   18     dE    -8.649364e-03     5.409049e-02    -1.6759e-02      0.179 (TRAH MIcro)
   18     dE    -8.881561e-03     1.577370e-02    -1.7169e-02      0.186 (TRAH MIcro)
   18     dE    -8.898568e-03     5.408668e-03    -1.7203e-02      0.186 (TRAH MIcro)
   19      -4708.159375484569     4.250956e-02                    12.779 (TRAH MAcro)   No
   19     dE    -1.799153e-04     1.833898e-02    -3.5974e-04      0.016 (TRAH MIcro)
   19     dE    -2.868323e-04     1.248729e-02    -5.7285e-04      0.038 (TRAH MIcro)
   19     dE    -3.006205e-04     3.860048e-03    -6.0015e-04      0.043 (TRAH MIcro)
   20      -4708.159692321286     4.847569e-03                    15.335 (TRAH MAcro)   No
   20     dE    -2.336930e-06     1.970152e-03    -4.6738e-06      0.002 (TRAH MIcro)
   20     dE    -3.761386e-06     1.492081e-03    -7.5225e-06      0.006 (TRAH MIcro)
   20     dE    -3.893848e-06     4.011119e-04    -7.7874e-06      0.006 (TRAH MIcro)
   21      -4708.159696234213     3.962589e-04                    18.402 (TRAH MAcro)   No
   21     dE    -9.535104e-09     1.315240e-04    -1.9070e-08      0.000 (TRAH MIcro)
   21     dE    -1.088140e-08     3.728585e-05    -2.1763e-08      0.000 (TRAH MIcro)
   22      -4708.159696244405     3.729283e-05                           (NR   MAcro)

               *****************************************************
               *                     SUCCESS                       *
               *           SCF CONVERGED AFTER 168 CYCLES          *
               *****************************************************

Warning: op=0 Small HOMO/LUMO gap (   0.021) - skipping pre-diagonalization
         Will do a full diagonalization
             **** ENERGY FILE WAS UPDATED (run.en.tmp) ****

----------------
TOTAL SCF ENERGY
----------------

Total Energy       :      -4708.15969624440550 Eh         -128115.53860 eV

Components:
Nuclear Repulsion  :      13747.95174098635653 Eh          374100.78579 eV
Electronic Energy  :     -18456.11143723076384 Eh         -502216.32439 eV
One Electron Energy:     -34045.59264373660699 Eh         -926427.67451 eV
Two Electron Energy:      15589.48120650584497 Eh          424211.35012 eV

Virial components:
Potential Energy   :      -9202.10660121406545 Eh         -250402.05081 eV
Kinetic Energy     :       4493.94690496965995 Eh          122286.51221 eV
Virial Ratio       :          2.04766696087082

DFT components:
N(Alpha)           :      253.999388578475 electrons
N(Beta)            :      253.999388578475 electrons
N(Total)           :      507.998777156951 electrons
E(X)               :     -480.250181835764 Eh       
[...]
  72   2.0000      -2.536640       -69.0255 
  73   2.0000      -2.534467       -68.9664 
  74   2.0000      -2.532944       -68.9249 
  75   2.0000      -2.531343       -68.8813 
  76   2.0000      -2.528204       -68.7959 
  77   2.0000      -1.975274       -53.7499 
  78   2.0000      -1.974645       -53.7328 
  79   2.0000      -1.971100       -53.6364 
  80   2.0000      -1.968623       -53.5689 
  81   2.0000      -1.966218       -53.5035 
  82   2.0000      -1.965617       -53.4872 
  83   2.0000      -1.171248       -31.8713 
  84   2.0000      -1.169673       -31.8284 
  85   2.0000      -1.169235       -31.8165 
  86   2.0000      -1.167321       -31.7644 
  87   2.0000      -1.165595       -31.7174 
  88   2.0000      -1.164151       -31.6782 
  89   2.0000      -1.162649       -31.6373 
  90   2.0000      -1.161613       -31.6091 
  91   2.0000      -1.160251       -31.5720 
  92   2.0000      -1.159773       -31.5590 
  93   2.0000      -1.158763       -31.5316 
  94   2.0000      -1.158517       -31.5248 
  95   2.0000      -1.155680       -31.4476 
  96   2.0000      -1.152838       -31.3703 
  97   2.0000      -1.150802       -31.3149 
  98   2.0000      -1.147815       -31.2336 
  99   2.0000      -1.143825       -31.1251 
 100   2.0000      -1.142239       -31.0819 
 101   2.0000      -0.987840       -26.8805 
 102   2.0000      -0.983691       -26.7676 
 103   2.0000      -0.983205       -26.7544 
 104   2.0000      -0.980869       -26.6908 
 105   2.0000      -0.978838       -26.6355 
 106   2.0000      -0.975381       -26.5415 
 107   2.0000      -0.970972       -26.4215 
 108   2.0000      -0.965790       -26.2805 
 109   2.0000      -0.963218       -26.2105 
 110   2.0000      -0.960163       -26.1274 
 111   2.0000      -0.958536       -26.0831 
 112   2.0000      -0.957514       -26.0553 
 113   2.0000      -0.913065       -24.8458 
 114   2.0000      -0.910321       -24.7711 
 115   2.0000      -0.908547       -24.7228 
 116   2.0000      -0.908052       -24.7093 
 117   2.0000      -0.905836       -24.6491 
 118   2.0000      -0.902682       -24.5632 
 119   2.0000      -0.899218       -24.4690 
 120   2.0000      -0.894595       -24.3432 
 121   2.0000      -0.893052       -24.3012 
 122   2.0000      -0.890019       -24.2186 
 123   2.0000      -0.888289       -24.1716 
 124   2.0000      -0.887553       -24.1516 
 125   2.0000      -0.756690       -20.5906 
 126   2.0000      -0.748675       -20.3725 
 127   2.0000      -0.739567       -20.1246 
 128   2.0000      -0.732376       -19.9290 
 129   2.0000      -0.726121       -19.7588 
 130   2.0000      -0.722028       -19.6474 
 131   2.0000      -0.570977       -15.5371 
 132   2.0000      -0.567767       -15.4497 
 133   2.0000      -0.566578       -15.4174 
 134   2.0000      -0.565617       -15.3912 
 135   2.0000      -0.563350       -15.3295 
 136   2.0000      -0.559664       -15.2292 
 137   2.0000      -0.557946       -15.1825 
 138   2.0000      -0.552174       -15.0254 
 139   2.0000      -0.549716       -14.9585 
 140   2.0000      -0.547244       -14.8913 
 141   2.0000      -0.545633       -14.8474 
 142   2.0000      -0.544650       -14.8207 
 143   2.0000      -0.543258       -14.7828 
 144   2.0000      -0.495026       -13.4703 
 145   2.0000      -0.475119       -12.9286 
 146   2.0000      -0.472366       -12.8537 
 147   2.0000      -0.471742       -12.8368 
 148   2.0000      -0.470549       -12.8043 
 149   2.0000      -0.469086       -12.7645 
 150   2.0000      -0.467740       -12.7279 
 151   2.0000      -0.466885       -12.7046 
 152   2.0000      -0.465823       -12.6757 
 153   2.0000      -0.464942       -12.6517 
 154   2.0000      -0.464094       -12.6286 
 155   2.0000      -0.463236       -12.6053 
 156   2.0000      -0.461549       -12.5594 
 157   2.0000      -0.458946       -12.4886 
 158   2.0000      -0.458621       -12.4797 
 159   2.0000      -0.457240       -12.4421 
 160   2.0000      -0.456135       -12.4121 
 161   2.0000      -0.453372       -12.3369 
 162   2.0000      -0.452826       -12.3220 
 163   2.0000      -0.449275       -12.2254 
 164   2.0000      -0.448343       -12.2000 
 165   2.0000      -0.446769       -12.1572 
 166   2.0000      -0.445397       -12.1199 
 167   2.0000      -0.442659       -12.0454 
 168   2.0000      -0.441217       -12.0061 
 169   2.0000      -0.438794       -11.9402 
 170   2.0000      -0.434559       -11.8249 
 171   2.0000      -0.427672       -11.6375 
 172   2.0000      -0.423301       -11.5186 
 173   2.0000      -0.415945       -11.3184 
 174   2.0000      -0.414844       -11.2885 
 175   2.0000      -0.410807       -11.1786 
 176   2.0000      -0.404873       -11.0172 
 177   2.0000      -0.399910       -10.8821 
 178   2.0000      -0.397798       -10.8246 
 179   2.0000      -0.393592       -10.7102 
 180   2.0000      -0.391633       -10.6569 
 181   2.0000      -0.385779       -10.4976 
 182   2.0000      -0.382202       -10.4002 
 183   2.0000      -0.379245       -10.3198 
 184   2.0000      -0.376563       -10.2468 
 185   2.0000      -0.375884       -10.2283 
 186   2.0000      -0.361543        -9.8381 
 187   2.0000      -0.356264        -9.6944 
 188   2.0000      -0.331648        -9.0246 
 189   2.0000      -0.328654        -8.9431 
 190   2.0000      -0.327787        -8.9195 
 191   2.0000      -0.326900        -8.8954 
 192   2.0000      -0.325040        -8.8448 
 193   2.0000      -0.323128        -8.7928 
 194   2.0000      -0.320276        -8.7152 
 195   2.0000      -0.319284        -8.6882 
 196   2.0000      -0.317923        -8.6511 
 197   2.0000      -0.315406        -8.5826 
 198   2.0000      -0.314126        -8.5478 
 199   2.0000      -0.312316        -8.4986 
 200   2.0000      -0.310973        -8.4620 
 201   2.0000      -0.310488        -8.4488 
 202   2.0000      -0.306163        -8.3311 
 203   2.0000      -0.303438        -8.2570 
 204   2.0000      -0.302218        -8.2238 
 205   2.0000      -0.300900        -8.1879 
 206   2.0000      -0.299831        -8.1588 
 207   2.0000      -0.298497        -8.1225 
 208   2.0000      -0.297221        -8.0878 
 209   2.0000      -0.296421        -8.0660 
 210   2.0000      -0.294555        -8.0152 
 211   2.0000      -0.292688        -7.9644 
 212   2.0000      -0.289575        -7.8797 
 213   2.0000      -0.287189        -7.8148 
 214   2.0000      -0.285954        -7.7812 
 215   2.0000      -0.283106        -7.7037 
 216   2.0000      -0.282387        -7.6841 
 217   2.0000      -0.281233        -7.6527 
 218   2.0000      -0.280284        -7.6269 
 219   2.0000      -0.278872        -7.5885 
 220   2.0000      -0.278062        -7.5665 
 221   2.0000      -0.275201        -7.4886 
 222   2.0000      -0.275001        -7.4832 
 223   2.0000      -0.272546        -7.4163 
 224   2.0000      -0.271599        -7.3906 
 225   2.0000      -0.271113        -7.3774 
 226   2.0000      -0.269321        -7.3286 
 227   2.0000      -0.268812        -7.3148 
 228   2.0000      -0.267284        -7.2732 
 229   2.0000      -0.264457        -7.1962 
 230   2.0000      -0.262707        -7.1486 
 231   2.0000      -0.261944        -7.1279 
 232   2.0000      -0.260674        -7.0933 
 233   2.0000      -0.259619        -7.0646 
 234   2.0000      -0.258129        -7.0240 
 235   2.0000      -0.255103        -6.9417 
 236   2.0000      -0.250340        -6.8121 
 237   2.0000      -0.246687        -6.7127 
 238   2.0000      -0.244765        -6.6604 
 239   2.0000      -0.240854        -6.5540 
 240   2.0000      -0.238366        -6.4863 
 241   2.0000      -0.236774        -6.4430 
 242   2.0000      -0.233437        -6.3521 
 243   2.0000      -0.225628        -6.1396 
 244   2.0000      -0.224479        -6.1084 
 245   2.0000      -0.219225        -5.9654 
 246   2.0000      -0.215692        -5.8693 
 247   2.0000      -0.210818        -5.7367 
 248   2.0000      -0.205719        -5.5979 
 249   2.0000      -0.181215        -4.9311 
 250   2.0000      -0.177621        -4.8333 
 251   2.0000      -0.153348        -4.1728 
 252   2.0000      -0.147513        -4.0140 
 253   2.0000      -0.143330        -3.9002 
 254   0.0000       0.128020         3.4836 
 255   0.0000       0.148192         4.0325 
 256   0.0000       0.150335         4.0908 
 257   0.0000       0.153443         4.1754 
 258   0.0000       0.161923         4.4061 
 259   0.0000       0.164251         4.4695 
 260   0.0000       0.165752         4.5103 
 261   0.0000       0.175005         4.7621 
 262   0.0000       0.176596         4.8054 
 263   0.0000       0.179846         4.8939 
 264   0.0000       0.183806         5.0016 
*Only the first 10 virtual orbitals were printed.
-------
TIMINGS
-------

Total SCF time: 0 days 0 hours 8 min 23 sec 

Total time                  ....     503.887 sec
Sum of individual times     ....     478.949 sec  ( 95.1%)

SCF preparation             ....       0.983 sec  (  0.2%)
Fock matrix formation       ....     385.384 sec  ( 76.5%)
  Startup                   ....       0.393 sec  (  0.1% of F)
  Split-RI-J                ....     293.942 sec  ( 76.3% of F)
  XC integration            ....      85.026 sec  ( 22.1% of F)
    XC Preparation          ....       0.000 sec  (  0.0% of XC)
    Basis function eval.    ....      14.287 sec  ( 16.8% of XC)
    Density eval.           ....      27.835 sec  ( 32.7% of XC)
    XC-Functional eval.     ....       0.911 sec  (  1.1% of XC)
    XC-Potential eval.      ....      23.903 sec  ( 28.1% of XC)
Diagonalization             ....       0.000 sec  (  0.0%)
Density matrix formation    ....       8.913 sec  (  1.8%)
Total Energy calculation    ....       1.085 sec  (  0.2%)
Population analysis         ....       0.000 sec  (  0.0%)
Orbital Transformation      ....      37.875 sec  (  7.5%)
Orbital Orthonormalization  ....       0.000 sec  (  0.0%)
DIIS solution               ....      44.661 sec  (  8.9%)
SOSCF solution              ....       0.000 sec  (  0.0%)
NR solution                 ....       0.047 sec  (  0.0%)
Finished LeanSCF after 504.0 sec

Maximum memory used throughout the entire LEANSCF-calculation: 129.9 MB


-------------------------------------------------------------------------------
                          DFT DISPERSION CORRECTION                            
                                                                               
                              DFTD3 V3.1  Rev 1                                
                          USING Becke-Johnson damping                          
-------------------------------------------------------------------------------
The PBE functional is recognized
Active option DFTDOPT                   ...         4   

molecular C6(AA) [au] = 174219.142636 


            DFT-D V3
 parameters
 s6 scaling factor         :     1.0000 
 a1 scaling factor         :     0.4289 
 s8 scaling factor         :     0.7875 
 a2 scaling factor         :     4.4407 
 ad hoc parameters k1-k3   :    16.0000     1.3333    -4.0000 

 Edisp/kcal,au: -121.336510455567  -0.193362016874 
 E6   /kcal   : -75.924751456 
 E8   /kcal   : -45.411759000 
 % E8         :  37.426293891 

-------------------------   ----------------
Dispersion correction           -0.193362017
-------------------------   ----------------

NOTIFICATION: Different basis set in ORCA and otool_gcp:
ORCA: 924  gCP: 966 
If you are NOT using ECPs, check your basis set inputs!
------------------   -----------------
gCP correction             0.499208630
------------------   -----------------

-------------------------   --------------------
FINAL SINGLE POINT ENERGY     -4707.853849630979
-------------------------   --------------------



           ************************************************************
           *        Program running with 24 parallel MPI-processes    *
           *              working on a common directory               *
           ************************************************************

------------------------------------------------------------------------------
                              ORCA PROPERTY CALCULATIONS
------------------------------------------------------------------------------

GBWName                                 ... run.gbw
Number of atoms                         ...     88
Number of basis functions               ...    924
Max core memory                         ...   4096 MB

Electric properties:
Dipole moment                           ... YES
Quadrupole moment                       ...  NO
Static polarizability (Dipole/Dipole)   ...  NO
Static polarizability (Dipole/Quad.)    ...  NO
Static polarizability (Quad./Quad.)     ...  NO
Static polarizability (Velocity)        ...  NO
Static hyperpolarizability              ...  NO

Atomic electric properties:
Dipole moment                           ...  NO
Quadrupole moment                       ...  NO
Static polarizability                   ...  NO

Choice of electric origin               ... Center of mass
Position of electric origin             ...    -1.239830    -0.342064     1.771848

General magnetic properties:
Magnetizability                         ...  NO

EPR properties:
g-Tensor (aka g-matrix)                 ...  NO
Zero-Field splitting spin-orbit         ...  NO
Zero-field splitting spin-spin          ...  NO
Hyperfine couplings                     ...  NO (   0 nuclei)
Quadrupole couplings                    ...  NO (   0 nuclei)
Contact density                         ...  NO (   0 nuclei)

NMR properties:
Chemical shifts                         ...  NO (   0 nuclei)
Spin-rotation constants                 ...  NO (   0 nuclei)
Spin-spin couplings                     ...  NO (   0 nuclei,    0 pairs)

Choice of magnetic origin               ... GIAO
Position of magnetic origin             ...     0.000000     0.000000     0.000000

Properties with geometric perturbations:
SCF Hessian                             ...  NO
IR spectrum                             ...  NO
VCD spectrum                            ...  NO
X-ray spectroscopy properties:
SCF XES/XAS/RIXS spectra                ...  NO

SCF SOC stabilization energy            ...  NO
Diagonal Born-Oppenheimer correction    ...  NO

-------------
DIPOLE MOMENT
-------------

Method             : SCF
Type of density    : Electron Density
Multiplicity       :   1
Irrep              :   0
Energy             : -4708.1596962444054952 Eh
Basis              : AO
                                X                 Y                 Z
Electronic contribution:    329.673205244      84.087564901    -307.289015509
Nuclear contribution   :   -328.588565279     -83.797087025     309.265628488
                        -----------------------------------------
Total Dipole Moment    :      1.084639965       0.290477876       1.976612979
                        -----------------------------------------
Magnitude (a.u.)       :      2.273283994
Magnitude (Debye)      :      5.778228710



--------------------
Rotational spectrum 
--------------------
 
Rotational constants in cm-1:             0.001668             0.000940             0.000921 
Rotational constants in MHz :            49.991749            28.187425            27.625043 

Dipole components along the rotational axes: 
x,y,z [a.u.] :     0.706294    -0.956220    -1.937682 
x,y,z [Debye]:     1.795257    -2.430518    -4.925196 

 

Dipole moment calculation done in   0.1 sec 

Maximum memory used throughout the entire PROP-calculation: 100.0 MB

--------------------------------
SUGGESTED CITATIONS FOR THIS RUN
--------------------------------

Below you find a list of papers that are relevant to this ORCA run
We neither can nor want to force you to cite these papers, but we appreciate if you do
You receive ORCA, which is the product of decades of hard work by many enthusiastic individuals, for free
The only thing we kindly ask in return is that you cite our papers,
We deeply appreciate it, if you show your appreciation for ORCA by not just citing the generic ORCA reference.

Please note that relegating all ORCA citations to the supporting information does *not* help us.
SI sections are not indexed - citations you put there will not count into any citation statistics
But we need these citations in order to attract the funding resources that allow us to do what we are doing

Therefore, if you are a happy ORCA user, please consider citing a few of the papers listed below in the main body of your paper

In addition to the list printed below, the program has created the file run.bibtex that contains the list in bibtex format
You can import this file easily into all common literature databanks and citation aid programs


List of essential papers. We consider these as the minimum necessary citations

  1. Neese, F.
     Software update: the ORCA program system, version 6.0
     WIRES Comput. Molec. Sci. 2025 15(1), e70019
     doi.org/10.1002/wcms.7019

List of papers to cite with high priority. The work reported in these papers was absolutely
necessary for this run to complete.
Our perspective: the developers of density functionals and basis sets usually get cited in chemistry papers
Good! But without the algorithms to do something with them, the functionals or basis sets would not do anything.
Hence, in our opinion, the algorithm design and method developments papers are equally worthy of getting cited

  1. Neese, F.
     An improvement of the resolution of the identity approximation for the formation of the Coulomb matrix
     J. Comp. Chem. 2003 24(14), 1740-1747
     doi.org/10.1002/jcc.10318
  2. Grimme, S.; Antony, J.; Ehrlich, S.; Krieg, H.
     A consistent and accurate ab initio parametrization of density functional dispersion correction (DFT-D) for the 94 elements H-Pu
     J. Chem. Phys. 2010 132 , 154104
     doi.org/10.1063/1.3382344
  3. Grimme, S.; Ehrlich, S.; Goerigk, L.
     Effect of the damping function in dispersion corrected density functional theory
     J. Comput. Chem. 2011 32(7), 1456-1465
     doi.org/10.1002/jcc.21759
  4. Helmich-Paris, B.
     A trust-region augmented Hessian implementation for restricted and unrestricted Hartree–Fock and Kohn–Sham methods
     J. Chem. Phys. 2021 154 , 164104
     doi.org/10.1063/5.0040798
  5. Neese, F.
     The SHARK Integral Generation and Digestion System
     J. Comp. Chem. 2022 44(3), 381
     doi.org/10.1002/jcc.26942

List of suggested additional citations. These are papers that are important in the 'surrounding' of 
of this run, or papers that preceded the highly important papers. If you like your results we are grateful for a citation.

  1. Neese, F.
     The ORCA program system
     WIRES Comput. Molec. Sci. 2012 2(1), 73-78
     doi.org/10.1002/wcms.81
  2. Neese, F.
     Software update: the ORCA program system, version 4.0
     WIRES Comput. Molec. Sci. 2018 8(1), 1-6
     doi.org/10.1002/wcms.1327
  3. Neese, F.; Wennmohs, F.; Becker, U.; Riplinger, C.
     The ORCA quantum chemistry program package
     J. Chem. Phys. 2020 152(22), 224108
     doi.org/10.1063/5.0004608
  4. Neese, F.
     Software update: The ORCA program system—Version 5.0
     WIRES Comput. Molec. Sci. 2022 12(1), e1606
     doi.org/10.1002/wcms.1606

List of optional additional citations

  1. Neese, F.
     Approximate second-order SCF convergence for spin unrestricted wavefunctions
     Chem. Phys. Lett. 2000 325(1-3), 93-98
     doi.org/10.1016/s0009-2614(00)00662-x

Timings for individual modules:

Sum of individual times          ...      522.682 sec (=   8.711 min)
Startup calculation              ...        9.152 sec (=   0.153 min)   1.8 %
SCF iterations                   ...      512.107 sec (=   8.535 min)  98.0 %
Property calculations            ...        1.422 sec (=   0.024 min)   0.3 %
                             ****ORCA TERMINATED NORMALLY****
TOTAL RUN TIME: 0 days 0 hours 8 minutes 44 seconds 110 msec
