
                                 *****************
                                 * O   R   C   A *
                                 *****************

                                            #,                                       
                                            ###                                      
                                            ####                                     
                                            #####                                    
                                            ######                                   
                                           ########,                                 
                                     ,,################,,,,,                         
                               ,,#################################,,                 
                          ,,##########################################,,             
                       ,#########################################, ''#####,          
                    ,#############################################,,   '####,        
                  ,##################################################,,,,####,       
                ,###########''''           ''''###############################       
              ,#####''   ,,,,##########,,,,          '''####'''          '####       
            ,##' ,,,,###########################,,,                        '##       
           ' ,,###''''                  '''############,,,                           
         ,,##''                                '''############,,,,        ,,,,,,###''
      ,#''                                            '''#######################'''  
     '                                                          ''''####''''         
             ,#######,   #######,   ,#######,      ##                                
            ,#'     '#,  ##    ##  ,#'     '#,    #''#        ,####,    ,#,          
            ##       ##  ##   ,#'  ##            #'  '#       #'       ,# #          
            ##       ##  #######   ##           ,######,      #####,      #          
            '#,     ,#'  ##    ##  '#,     ,#' ,#      #,     #,   #      #          
             '#######'   ##     ##  '#######'  #'      '#     '####' #    #          



                #########################################################
                #                        -***-                          #
                #          Department of theory and spectroscopy        #
                #                                                       #
                #                      Frank Neese                      #
                #                                                       #
                #     Directorship, Architecture, Infrastructure        #
                #                    SHARK, DRIVERS                     #
                #        Core code/Algorithms in most modules           #
                #                                                       #
                #        Max Planck Institute fuer Kohlenforschung      #
                #                Kaiser Wilhelm Platz 1                 #
                #                 D-45470 Muelheim/Ruhr                 #
                #                      Germany                          #
                #                                                       #
                #                  All rights reserved                  #
                #                        -***-                          #
                #########################################################


                         Program Version 6.1.0  -  RELEASE   -
                                (GIT: $679e74b$)
                          ($2025-06-10 18:02:51 +0200$)


 With contributions from (in alphabetic order):
[Max-Planck-Institut fuer Kohlenforschung]                               
  Daniel Aravena         : Magnetic Suceptibility                        
  Michael Atanasov       : Ab Initio Ligand Field Theory (pilot matlab implementation)
  Alexander A. Auer      : GIAO ZORA, VPT2 properties, NMR spectrum      
  Ute Becker             : All parallelization in ORCA, NUMFREQ, NUMCALC 
  Giovanni Bistoni       : ED, misc. LED, open-shell LED, HFLD           
  Dmytro Bykov           : pre 5.0 version of the SCF Hessian            
  Marcos Casanova-Páez   : Triplet and SCS-CIS(D). UHF-(DLPNO)-IP/EA/STEOM-CCSD. UHF-CVS-IP/STEOM-CCSD   
  Vijay G. Chilkuri      : MRCI spin determinant printing, contributions to CSF-ICE 
  Pauline Colinet        : FMM embedding                                 
  Dipayan Datta          : RHF DLPNO-CCSD density                        
  Achintya Kumar Dutta   : EOM-CC, STEOM-CC                              
  Nicolas Foglia         : Exact transition moments, OPA infrastructure, MCD improvements    
  Dmitry Ganyushin       : Spin-Orbit,Spin-Spin,Magnetic field MRCI      
  Miquel Garcia-Rates    : C-PCM and meta-GGA Hessian, CCSD/C-PCM, Gaussian charge scheme 
  Tiago L. C. Gouveia    : GS-ROHF, GS-ROCIS                             
  Yang Guo               : DLPNO-NEVPT2, F12-NEVPT2, CIM, IAO-localization        
  Andreas Hansen         : Spin unrestricted coupled pair/coupled cluster methods 
  Ingolf Harden          : AUTO-CI MPn and infrastructure                
  Benjamin Helmich-Paris : MC-RPA, TRAH-(SCF,CASSCF), AVAS, COSX integrals, SCF dyn. polar., MC-PDFT, srDFT 
  Lee Huntington         : MR-EOM, pCC                                   
  Robert Izsak           : Overlap fitted RIJCOSX, COSX-SCS-MP3, EOM     
  Riya Kayal             : Wick's Theorem for AUTO-CI, AUTO-CI UHF-CCSDT 
  Emily Kempfer          : AUTO-CI RHF CISDT and CCSDT, approximate NEVPT4
  Christian Kollmar      : KDIIS, OOCD, Brueckner-CCSD(T), CCSD density, CASPT2, CASPT2-K, improved NEVPT2 
  Axel Koslowski         : Symmetry handling                             
  Simone Kossmann        : meta-GGA functionals, TD-DFT gradient, OOMP2, (MP2 Hessian; deprecated post 5.0) 
  Lucas Lang             : DCDCAS, Hyperfine gauge corrections, ICE-SOC+SSC
  Marvin Lechner         : AUTO-CI (C++ implementation), FIC-MRCC        
  Spencer Leger          : CASSCF response                               
  Dagmar Lenk            : GEPOL surface, SMD, ORCA-2-JSON               
  Dimitrios Liakos       : Extrapolation schemes; Compound Job, Property file
  Dimitrios Manganas     : Further ROCIS development; embedding schemes. LFT, Crystal Embedding 
  Dimitrios Pantazis     : SARC Basis sets                               
  Anastasios Papadopoulos: AUTO-CI, single reference methods and gradients 
  Taras Petrenko         : pre 6.0 DFT Hessian and TD-DFT gradient,  ECA, NRVS 
  Petra Pikulova         : Analytic Raman intensities                    
  Peter Pinski           : DLPNO-MP2, DLPNO-MP2 Gradient                 
  Shashank Vittal Rao    : ES-AILFT, MagRelax                            
  Christoph Reimann      : Effective Core Potentials                     
  Marius Retegan         : Local ZFS, SOC                                
  Christoph Riplinger    : Optimizer, TS searches, QM/MM, DLPNO-CCSD(T), (RO)-DLPNO pert. Triples 
  Michael Roemelt        : Original ROCIS implementation, recursive CI coupling coefficients
  Masaaki Saitow         : Open-shell DLPNO-CCSD energy and density      
  Barbara Sandhoefer     : DKH picture change effects                    
  Yorick L. A. Schmerwitz: GMF and freeze-and-release deltaSCF, NEB S-IDPP initial path                    
  Kantharuban Sivalingam : CASSCF convergence/infrastructure, NEVPT2, NEVPT3, NEVPT4(SD), FIC-MRCI and CEPA variants
  Bernardo de Souza      : ESD, SOC TD-DFT                               
  Georgi L. Stoychev     : AutoAux, RI-MP2 NMR, DLPNO-MP2 response, X2C  
  Van Anh Tran           : RI-MP2 g-tensors                              
  Willem Van den Heuvel  : Paramagnetic NMR                              
  Zikuan Wang            : NOTCH, Electric field optimization            
  Frank Wennmohs         : Technical directorship and infrastructure     
  Hang Xu                : AUTO-CI-Response properties                   
                                                                         
[FACCTs GmbH]                                                            
  Markus Bursch, Nicolas Foglia, Miquel Garcia-Rates, Ingolf Harden, Hagen Neugebauer, Anastasios Papadopoulos, 
  Christoph Riplinger, Bernardo de Souza, Georgi L. Stoychev                                                    
                                                                 
  APM, various basis sets, CI-OPT, improved COSX, DLPNO-Multilevel,           
  DOCKER, DRACO, updates on ESD, Fragmentator, GOAT, IRC, LR-CPCM, L-BFGS, MBIS, meta-GGA TD-DFT gradient, ML-optimized integration grids, 
  MM, NACMEs, nearIR, NEB, NEB-TS, NL-DFT gradient (VV10), 2- and 3-layer-ONIOM, interface openCOSMO-RS, QMMM,   
  Crystal-QMMM, RESP, rigid body optimization, SF, symmetry and pop. for TD-DFT, various functionals, SOLVATOR                                   
                                                                         
[Other institutions]                                                     
  V. Asgeirsson          : NEB                                           
  Christoph Bannwarth    : sTDA-DFT, sTD-DFT, PBEh-3c, B97-3c, D3        
  Giovanni Bistoni       : ETS/NOCV, ADLD/ADEX, COVALED                  
  Martin Brehm           : Molecular dynamics                            
  Ronald Cardenas        : ETS/NOCV                                      
  Martina Colucci        : COVALED                                       
  Sebastian Ehlert       : rSCAN, r2SCAN, r2SCAN-3c, D4, dhf basis sets  
  Marvin Friede          : D4 for Fr, Ra, Ac-Lr                          
  Lars Goerigk           : TD-DFT with DH, B97 family of functionals     
  Stefan Grimme          : VdW corrections, initial TS optimization, DFT functionals, gCP, sTDA/sTD-DF 
  Waldemar Hujo          : DFT-NL                                        
  H. Jonsson             : NEB                                           
  Holger Kruse           : gCP                                           
  Marcel Mueller         : wB97X-3c, vDZP basis set                      
  Hagen Neugebauer       : wr2SCAN, Native XTB                           
  Gianluca Regni         : ADLD/ADEX                                     
  Tobias Risthaus        : pre 6.0 range-separated hybrid DFT and stability analysis
  Lukas Wittmann         : regularized MP2, r2SCAN double-hybrids, wr2SCAN        
                                                                         
We gratefully acknowledge several colleagues who have allowed us to      
interface, adapt or use parts of their codes:                            
  Ed Valeev, F. Pavosevic, A. Kumar             : LibInt (2-el integral package), F12 methods 
  Garnet Chan, S. Sharma, J. Yang, R. Olivares  : DMRG                   
  Ulf Ekstrom                                   : XCFun DFT Library      
  Mihaly Kallay                                 : mrcc  (arbitrary order and MRCC methods)
  Frank Weinhold                                : gennbo (NPA and NBO analysis)           
  Simon Mueller                                 : openCOSMO-RS                            
  Christopher J. Cramer and Donald G. Truhlar   : smd solvation model                     
  S Lehtola, MJT Oliveira, MAL Marques          : LibXC Library                           
  Liviu Ungur et al                             : ANISO software                          


 Your calculation uses the libint2 library for the computation of 2-el integrals
 For citations please refer to: http://libint.valeyev.net

 Your ORCA version has been built with support for libXC version: 7.0.0
 For citations please refer to: https://libxc.gitlab.io

 This ORCA versions uses:
   CBLAS   interface :  Fast vector & matrix operations
   LAPACKE interface :  Fast linear algebra routines
   SCALAPACK package :  Parallel linear algebra routines
   Shared memory     :  Shared parallel matrices
   BLAS/LAPACK       :  OpenBLAS 0.3.29  USE64BITINT DYNAMIC_ARCH NO_AFFINITY Prescott SINGLE_THREADED
        Core in use  :  Prescott
   Copyright (c) 2011-2014, The OpenBLAS Project


  ***********************************
  * Starting time: Tue Aug 12 23:06:08 2025
  * Host name:     cuda1
  * Process ID:    141427
  * Working dir.:  /local/scratch/mehlhorn/61828
  ***********************************



***************************************
The coordinates will be read from file: start.xyz
***************************************


Your calculation utilizes the geometrical counterpoise correction gCP
Please cite in your paper:
H.Kruse, S. Grimme J.Chem.Phys., 136, (2012), 154101 
   

Your calculation utilizes the atom-pairwise dispersion correction
with the Becke-Johnson damping scheme (D3BJ)


Warning: RI is on but no J-basis has been assigned. Assigning Def2/J (nothing to worry about!)
================================================================================

cite the ECPs for Zr [Def2-ECP] as follows:
Ce-Yb(ecp-28): M. Dolg, H. Stoll, H.Preuss, J. Chem. Phys., 1989, 90, 1730-1734.
Y-Cd(ecp-28), Hf-Hg(ecp-46): D. Andrae,U. Haeussermann, M. Dolg, H. Stoll, H. Preuss, Theor. Chim. Acta, 1990, 77, 123-141.
In-Sb(ecp-28), Tl-Bi(ecp-46): B. Metz, H. Stoll, M. Dolg, J. Chem. Phys., 2000, 113, 2563-2569.
Te-Xe(ecp-28), Po-Rn(ecp-46): K. A. Peterson, D. Figgen, E. Goll, H. Stoll, M. Dolg, J. Chem. Phys., 2003, 119, 11113-11123.
Rb(ecp-28), Cs(ecp-46): T. Leininger, A. Nicklass, W. Kuechle, H. Stoll, M. Dolg, A. Bergner, Chem. Phys. Lett., 1996, 255, 274-280.
Sr(ecp-28), Ba(ecp-46): M. Kaupp, P. V. Schleyer, H. Stoll and H. Preuss, J. Chem. Phys., 1991, 94, 1360-1366.
La(ecp-46): M. Dolg, H. Stoll, A. Savin, H. Preuss, Theor. Chim. Acta, 1989, 75, 173-194.
Lu(ecp-28): X. Cao, M. Dolg, J. Chem. Phys., 2001, 115, 7348-7355.

ECP parameters for Zr [Def2-ECP] have been obtained from:
TURBOMOLE (7.0.2)

----- Orbital basis set information -----
Your calculation utilizes the basis: def2-SV(P)
   F. Weigend and R. Ahlrichs, Phys. Chem. Chem. Phys. 7, 3297 (2005).

----- AuxJ basis set information -----
Your calculation utilizes the auxiliary basis: def2/J
   H-Rn: F. Weigend, Phys. Chem. Chem. Phys. 8, 1057 (2006).
   Fr-Lr: K. Eichkorn, F. Weigend, O. Treutler, R. Ahlrichs; Theor. Chem. Acc. 97, 119 (1997).

================================================================================
                                        WARNINGS
                       Please study these warnings very carefully!
================================================================================


WARNING: Gradients are needed
  ===> : At least TightSCF should be used for SCF convergence

WARNING: Geometry Optimization
  ===> : Switching off AutoStart
         For restart on a previous wavefunction, please use MOREAD

================================================================================
                                       INPUT FILE
================================================================================
NAME = run.inp
|  1> # Geometry optimization for (AlH3)n cluster
|  2> 
|  3> %pal nprocs 24  end
|  4> 
|  5> %geom MaxIter 500 end
|  6> 
|  7> 
|  8> ! PBE def2-SV(P)
|  9> ! RKS	# closed shell for AlH3
| 10> ! D3    #  dispersion correction
| 11> ! gCP(DFT/SV(P))
| 12> ! Freq 	# Frequency analysis to check the stabiltity of the structures
| 13> 
| 14> ! NoPop # population analysis not necessary	
| 15> 
| 16> ! DEFGRID2
| 17> ! NormalSCF
| 18> ! SloppyOpt
| 19> 
| 20> ! SmallPrint
| 21> 
| 22> 
| 23> * xyzFile 0 1 start.xyz # only maingroup elements H and Al so there should be no net spin
| 24> 
| 25>                          ****END OF INPUT****
================================================================================

                       *****************************
                       * Geometry Optimization Run *
                       *****************************

Geometry optimization settings:
Update method            Update   .... BFGS
Choice of coordinates    CoordSys .... (2022) Redundant Internals
Initial Hessian          InHess   .... Almloef's Model
Max. no of cycles        MaxIter  .... 500

Convergence Tolerances:
Energy Change            TolE     ....  8.0000e-05 Eh
Max. Gradient            TolMAXG  ....  5.0000e-03 Eh/bohr
RMS Gradient             TolRMSG  ....  1.0000e-03 Eh/bohr
Max. Displacement        TolMAXD  ....  3.0000e-02 bohr
RMS Displacement         TolRMSD  ....  2.0000e-02 bohr
Strict Convergence                .... False

------------------------------------------------------------------------------
                        ORCA OPTIMIZATION COORDINATE SETUP
------------------------------------------------------------------------------

The optimization will be done in redundant internal coordinates (2022)
Making redundant internal coordinates   ...  (2022 redundants) done
Evaluating the initial hessian          ...  (Almloef) done
Evaluating the coordinates              ...  done
Calculating the B-matrix                .... done
Calculating the G-matrix                .... done
The number of degrees of freedom        ....  741

    -----------------------------------------------------------------
                    Redundant Internal Coordinates


    -----------------------------------------------------------------
         Definition                    Initial Value    Approx d2E/dq
    -----------------------------------------------------------------
      1. B(Zr  2,Zr  1)                  3.4276         0.035900   
      2. B(Zr  3,Zr  0)                  3.4325         0.035259   
      3. B(Zr  4,Zr  3)                  3.4213         0.036739   
      4. B(Zr  4,Zr  1)                  3.3734         0.043820   
      5. B(Zr  5,Zr  0)                  3.3706         0.044265   
      6. B(Zr  5,Zr  2)                  3.4034         0.039243   
      7. B(O   6,Zr  3)                  2.0870         0.437434   
      8. B(O   6,Zr  5)                  2.1466         0.351431   
      9. B(O   6,Zr  0)                  2.0811         0.447045   
     10. B(O   7,Zr  4)                  2.1569         0.338410   
     11. B(O   7,Zr  2)                  2.0986         0.419221   
     12. B(O   7,Zr  1)                  2.0780         0.452252   
     13. B(O   8,Zr  2)                  2.1503         0.346775   
     14. B(O   8,Zr  1)                  2.1700         0.322520   
     15. B(O   8,Zr  5)                  2.1826         0.307977   
     16. B(O   9,Zr  0)                  2.1666         0.326561   
     17. B(O   9,Zr  4)                  2.1745         0.317193   
     18. B(O   9,Zr  3)                  2.1530         0.343320   
     19. B(O  10,Zr  3)                  2.0765         0.454665   
     20. B(O  10,Zr  4)                  2.1045         0.410271   
     21. B(O  10,Zr  1)                  2.1293         0.374537   
     22. B(O  11,Zr  5)                  2.1111         0.400493   
     23. B(O  11,Zr  2)                  2.0667         0.471403   
     24. B(O  11,Zr  0)                  2.1264         0.378593   
     25. B(O  12,Zr  0)                  1.9978         0.607206   
     26. B(O  13,Zr  0)                  1.9840         0.638629   
     27. B(O  14,Zr  0)                  2.0721         0.462109   
     28. B(O  15,Zr  0)                  1.9854         0.635541   
     29. B(O  16,Zr  1)                  1.9819         0.643696   
     30. B(O  17,Zr  1)                  2.0742         0.458561   
     31. B(O  18,Zr  1)                  1.9851         0.636158   
     32. B(O  19,Zr  1)                  1.9946         0.614348   
     33. B(O  20,Zr  2)                  1.9735         0.663912   
     34. B(O  21,Zr  2)                  2.0634         0.477187   
     35. B(O  22,Zr  2)                  1.9783         0.652168   
     36. B(O  23,Zr  2)                  2.0604         0.482327   
     37. B(O  24,Zr  3)                  2.0695         0.466556   
     38. B(O  25,Zr  3)                  1.9799         0.648490   
     39. B(O  26,Zr  3)                  2.0664         0.471936   
     40. B(O  27,Zr  3)                  1.9710         0.670003   
     41. B(O  28,Zr  4)                  1.9793         0.649938   
     42. B(O  29,Zr  4)                  2.0190         0.561736   
     43. B(O  30,Zr  4)                  1.9881         0.629286   
     44. B(O  31,Zr  4)                  2.0720         0.462340   
     45. B(O  32,Zr  5)                  2.0784         0.451518   
     46. B(O  33,Zr  5)                  1.9925         0.619141   
     47. B(O  34,Zr  5)                  2.0104         0.579710   
     48. B(O  35,Zr  5)                  1.9717         0.668266   
     49. B(C  36,O  33)                  1.3027         0.771310   
     50. B(C  36,O  12)                  1.3020         0.773049   
     51. B(C  37,O  25)                  1.3009         0.776259   
     52. B(C  37,O  13)                  1.3007         0.776823   
     53. B(C  38,O  21)                  1.2973         0.786776   
     54. B(C  38,O  14)                  1.2968         0.788198   
     55. B(C  39,O  15)                  1.2951         0.792883   
     56. B(C  39,O  29)                  1.2955         0.791921   
     57. B(C  40,O  34)                  1.2951         0.793019   
     58. B(C  40,O  16)                  1.2945         0.794721   
     59. B(C  41,O  26)                  1.2980         0.784706   
     60. B(C  41,O  17)                  1.2970         0.787600   
     61. B(C  42,O  22)                  1.3013         0.775255   
     62. B(C  42,O  18)                  1.3013         0.775104   
     63. B(C  43,O  19)                  1.3016         0.774438   
     64. B(C  43,O  30)                  1.3021         0.772956   
     65. B(C  44,O  20)                  1.2991         0.781432   
     66. B(C  44,O  35)                  1.2990         0.781760   
     67. B(C  45,O  31)                  1.2981         0.784191   
     68. B(C  45,O  23)                  1.2999         0.779148   
     69. B(C  46,O  32)                  1.2984         0.783486   
     70. B(C  46,O  24)                  1.3003         0.778099   
     71. B(C  47,O  28)                  1.2987         0.782693   
     72. B(C  47,O  27)                  1.2988         0.782436   
     73. B(H  48,C  41)                  1.0851         0.366633   
     74. B(H  49,C  42)                  1.0915         0.358119   
     75. B(H  50,C  38)                  1.0848         0.367008   
     76. B(H  51,C  37)                  1.0911         0.358674   
     77. B(H  52,C  43)                  1.0923         0.357094   
     78. B(H  53,C  47)                  1.0901         0.360029   
     79. B(H  54,C  39)                  1.0862         0.365110   
     80. B(H  55,C  45)                  1.0866         0.364661   
     81. B(H  56,C  40)                  1.0858         0.365728   
     82. B(H  57,C  46)                  1.0865         0.364751   
     83. B(H  58,C  36)                  1.0925         0.356752   
     84. B(H  59,C  44)                  1.0903         0.359723   
     85. B(Al 60,O  35)                  3.3604         0.010000   
     86. B(Al 60,O  34)                  3.3173         0.010000   
     87. B(Al 61,Al 60)                  3.2774         0.029900   
     88. B(H  62,O  16)                  3.2770         0.010000   
     89. B(H  62,H  49)                  3.3017         0.010000   
     90. B(H  62,O  18)                  2.7178         0.010000   
     91. B(H  62,C  42)                  3.2683         0.010000   
     92. B(H  62,Al 61)                  1.6689         0.300867   
     93. B(H  63,O  18)                  3.2712         0.010000   
     94. B(H  63,O  22)                  3.0210         0.010000   
     95. B(H  63,H  59)                  2.8335         0.010000   
     96. B(H  63,H  49)                  2.8027         0.010000   
     97. B(H  63,C  42)                  2.7736         0.010000   
     98. B(H  63,O  20)                  2.7712         0.010000   
     99. B(H  63,C  44)                  2.8543         0.010000   
    100. B(H  63,Al 61)                  1.5951         0.394568   
    101. B(H  64,C  44)                  3.0789         0.010000   
    102. B(H  64,H  59)                  3.0225         0.010000   
    103. B(H  64,O  35)                  2.9012         0.010000   
    104. B(H  64,Al 61)                  1.6690         0.300724   
    105. B(H  64,Al 60)                  1.6698         0.299871   
    106. B(H  64,O  34)                  3.3670         0.010000   
    107. B(H  65,O  35)                  2.8053         0.010000   
    108. B(H  65,O  34)                  2.6225         0.010000   
    109. B(H  65,Al 60)                  1.5960         0.393339   
    110. B(H  66,H  56)                  2.7601         0.010000   
    111. B(H  66,Al 60)                  1.6694         0.300305   
    112. B(H  66,C  40)                  3.3531         0.010000   
    113. B(H  67,Al 61)                  1.5955         0.393966   
    114. B(Al 68,O  16)                  3.2767         0.010000   
    115. B(Al 68,H  62)                  1.6700         0.299634   
    116. B(Al 68,Al 61)                  3.2857         0.028998   
    117. B(Al 68,O  18)                  3.3485         0.010000   
    118. B(H  69,H  56)                  2.8558         0.010000   
    119. B(H  69,Al 68)                  1.6694         0.300292   
    120. B(H  70,O  18)                  2.9423         0.010000   
    121. B(H  70,O  16)                  2.6738         0.010000   
    122. B(H  70,Al 68)                  1.5966         0.392426   
    123. B(H  70,Zr  1)                  3.3912         0.010000   
    124. B(H  71,Al 60)                  1.5956         0.393939   
    125. B(Al 72,H  56)                  2.9065         0.010000   
    126. B(Al 72,H  69)                  1.6694         0.300282   
    127. B(Al 72,Al 68)                  3.3183         0.025728   
    128. B(Al 72,H  66)                  1.6697         0.299953   
    129. B(Al 72,Al 60)                  3.3212         0.025459   
    130. B(H  73,H  56)                  2.7010         0.010000   
    131. B(H  73,Al 72)                  1.5961         0.393163   
    132. B(H  74,Al 72)                  1.5961         0.393162   
    133. B(H  75,Al 68)                  1.5956         0.393863   
    134. A(Zr  3,Zr  0,O  15)          111.6451         0.356659   
    135. A(Zr  3,Zr  0,Zr  5)           70.2316         0.252955   
    136. A(O  12,Zr  0,O  15)          135.4428         0.544320   
    137. A(O   9,Zr  0,O  15)           75.1653         0.484683   
    138. A(O   6,Zr  0,O  14)          127.4424         0.484268   
    139. A(O   9,Zr  0,O  12)          140.9827         0.480619   
    140. A(O   6,Zr  0,O  12)           81.4371         0.509469   
    141. A(O   9,Zr  0,O  11)           89.1959         0.440907   
    142. A(Zr  5,Zr  0,O  12)           72.9661         0.367906   
    143. A(O  13,Zr  0,O  14)          130.6588         0.517500   
    144. A(Zr  3,Zr  0,O  13)           73.1518         0.356952   
    145. A(O   9,Zr  0,O  14)          138.1210         0.457148   
    146. A(O   6,Zr  0,O   9)           68.0630         0.454397   
    147. A(O  11,Zr  0,O  15)          106.2560         0.498148   
    148. A(O  11,Zr  0,O  13)          158.9517         0.498597   
    149. A(Zr  5,Zr  0,O  13)          127.4403         0.371110   
    150. A(Zr  3,Zr  0,O  12)          105.1914         0.353910   
    151. A(O  14,Zr  0,O  15)           76.5518         0.517030   
    152. A(O  12,Zr  0,O  14)           79.8805         0.512635   
    153. A(Zr  5,Zr  0,O  15)          143.0140         0.370800   
    154. A(O   6,Zr  0,O  15)          142.2301         0.513832   
    155. A(Zr  5,Zr  0,O   9)           94.7345         0.331376   
    156. A(Zr  5,Zr  0,O  11)           37.1461         0.339624   
    157. A(Zr  3,Zr  0,O   9)           37.2410         0.319213   
    158. A(O  12,Zr  0,O  13)           81.9305         0.544819   
    159. A(O  11,Zr  0,O  12)          100.2446         0.493946   
    160. A(Zr  3,Zr  0,O  11)           86.1667         0.327047   
    161. A(O   9,Zr  0,O  13)           76.8017         0.485117   
    162. A(O  11,Zr  0,O  14)           69.9466         0.469676   
    163. A(O  13,Zr  0,O  15)           85.5090         0.549549   
    164. A(Zr  5,Zr  0,O  14)           89.6722         0.351190   
    165. A(O   6,Zr  0,O  13)           94.1073         0.514298   
    166. A(Zr  3,Zr  0,O   6)           34.6185         0.336172   
    167. A(Zr  3,Zr  0,O  14)          156.1132         0.338033   
    168. A(Zr  5,Zr  0,O   6)           37.8087         0.349231   
    169. A(O   6,Zr  0,O  11)           65.8120         0.466831   
    170. A(Zr  2,Zr  1,O  18)           72.6156         0.357810   
    171. A(O   8,Zr  1,O  16)           74.9607         0.484710   
    172. A(O   7,Zr  1,O  18)           93.9655         0.515040   
    173. A(Zr  4,Zr  1,O  16)          142.1087         0.370968   
    174. A(O   8,Zr  1,O  17)          137.8674         0.455472   
    175. A(O   8,Zr  1,O  10)           90.1365         0.439062   
    176. A(Zr  2,Zr  1,O  10)           87.3055         0.327436   
    177. A(O  10,Zr  1,O  17)           69.7787         0.468087   
    178. A(Zr  2,Zr  1,O   8)           37.2968         0.319502   
    179. A(O  16,Zr  1,O  17)           75.5393         0.517519   
    180. A(Zr  4,Zr  1,O  17)           89.9936         0.350135   
    181. A(Zr  2,Zr  1,O   7)           35.0453         0.337832   
    182. A(O  18,Zr  1,O  19)           81.2927         0.545626   
    183. A(O  16,Zr  1,O  18)           86.8069         0.550475   
    184. A(Zr  2,Zr  1,O  16)          111.5325         0.358528   
    185. A(O   7,Zr  1,O  10)           66.0177         0.466900   
    186. A(Zr  2,Zr  1,Zr  4)           71.0030         0.253247   
    187. A(O  10,Zr  1,O  16)          105.5965         0.498331   
    188. A(Zr  4,Zr  1,O  19)           73.1905         0.368006   
    189. A(O  16,Zr  1,O  19)          135.5336         0.546846   
    190. A(O  10,Zr  1,O  18)          159.3300         0.497241   
    191. A(O  17,Zr  1,O  19)           80.1024         0.513017   
    192. A(O   7,Zr  1,O  17)          127.9807         0.484615   
    193. A(O  10,Zr  1,O  19)           99.9156         0.494030   
    194. A(O   7,Zr  1,O   8)           68.2675         0.454325   
    195. A(O   8,Zr  1,O  19)          141.2316         0.480552   
    196. A(O   8,Zr  1,O  18)           76.9676         0.483656   
    197. A(Zr  2,Zr  1,O  19)          105.3950         0.355696   
    198. A(Zr  2,Zr  1,O  17)          157.0749         0.338613   
    199. A(O  17,Zr  1,O  18)          130.2611         0.516378   
    200. A(Zr  4,Zr  1,O  18)          127.2607         0.370218   
    201. A(O   7,Zr  1,O  16)          141.9725         0.516178   
    202. A(Zr  4,Zr  1,O   7)           38.0151         0.349317   
    203. A(Zr  4,Zr  1,O  10)           36.9235         0.338442   
    204. A(O   7,Zr  1,O  19)           81.8038         0.511689   
    205. A(Zr  4,Zr  1,O   8)           95.2210         0.330141   
    206. A(Zr  1,Zr  2,O   7)           34.6509         0.333597   
    207. A(O   8,Zr  2,O  23)          139.3508         0.465821   
    208. A(O   7,Zr  2,O   8)           68.2781         0.454050   
    209. A(Zr  5,Zr  2,O  22)          124.4947         0.364830   
    210. A(Zr  1,Zr  2,O  23)          102.5450         0.341485   
    211. A(Zr  5,Zr  2,O   8)           38.5719         0.328086   
    212. A(Zr  5,Zr  2,O   7)           89.4023         0.338577   
    213. A(O  22,Zr  2,O  23)           82.4989         0.523733   
    214. A(O  21,Zr  2,O  23)           77.5443         0.494056   
    215. A(O  11,Zr  2,O  23)          111.3363         0.492939   
    216. A(Zr  1,Zr  2,O   8)           37.6985         0.323316   
    217. A(O  20,Zr  2,O  21)           80.9023         0.524435   
    218. A(O  20,Zr  2,O  22)           84.5874         0.556338   
    219. A(O  11,Zr  2,O  21)           71.2531         0.491961   
    220. A(O  20,Zr  2,O  23)          136.5826         0.525493   
    221. A(Zr  1,Zr  2,Zr  5)           70.9264         0.249197   
    222. A(O   8,Zr  2,O  11)           68.0373         0.463872   
    223. A(O   8,Zr  2,O  21)          133.0260         0.464909   
    224. A(Zr  5,Zr  2,O  23)          145.1430         0.346625   
    225. A(O  21,Zr  2,O  22)          131.8522         0.522680   
    226. A(Zr  1,Zr  2,O  21)          155.1238         0.340873   
    227. A(O  11,Zr  2,O  22)          156.3792         0.521484   
    228. A(O   7,Zr  2,O  21)          129.2914         0.481402   
    229. A(O   7,Zr  2,O  11)           84.0884         0.480320   
    230. A(Zr  1,Zr  2,O  22)           71.9809         0.359327   
    231. A(Zr  5,Zr  2,O  11)           35.8832         0.345292   
    232. A(Zr  5,Zr  2,O  21)           94.5666         0.346001   
    233. A(Zr  1,Zr  2,O  11)           86.0055         0.340179   
    234. A(O   8,Zr  2,O  22)           88.9047         0.492450   
    235. A(Zr  1,Zr  2,O  20)          112.4124         0.360421   
    236. A(O   7,Zr  2,O  20)          147.0595         0.511857   
    237. A(Zr  5,Zr  2,O  20)           73.3466         0.365947   
    238. A(O   7,Zr  2,O  22)           82.5284         0.510152   
    239. A(O   8,Zr  2,O  20)           81.3170         0.494083   
    240. A(O  11,Zr  2,O  20)           96.4044         0.523235   
    241. A(O   7,Zr  2,O  23)           71.2270         0.482355   
    242. A(O   9,Zr  3,O  10)           67.6779         0.459976   
    243. A(O  25,Zr  3,O  27)           83.7889         0.556706   
    244. A(Zr  4,Zr  3,O  10)           35.3550         0.339438   
    245. A(Zr  0,Zr  3,O   6)           34.5065         0.334959   
    246. A(O   6,Zr  3,O  24)           70.9232         0.483182   
    247. A(O   6,Zr  3,O  27)          148.5713         0.516830   
    248. A(Zr  4,Zr  3,O  24)          147.6805         0.340906   
    249. A(Zr  4,Zr  3,O  27)           73.4082         0.362409   
    250. A(O   6,Zr  3,O  26)          127.4243         0.484206   
    251. A(O  24,Zr  3,O  27)          135.0467         0.523117   
    252. A(O  26,Zr  3,O  27)           81.4224         0.524245   
    253. A(O   9,Zr  3,O  27)           82.6483         0.494002   
    254. A(O  25,Zr  3,O  26)          132.8532         0.521042   
    255. A(O   9,Zr  3,O  26)          134.2299         0.463120   
    256. A(Zr  0,Zr  3,Zr  4)           70.2708         0.246182   
    257. A(Zr  4,Zr  3,O  26)           96.2651         0.341560   
    258. A(Zr  4,Zr  3,O   9)           37.9800         0.324011   
    259. A(Zr  4,Zr  3,O   6)           89.4312         0.337258   
    260. A(O   9,Zr  3,O  24)          138.6947         0.462150   
    261. A(Zr  0,Zr  3,O  25)           71.8624         0.357883   
    262. A(O  10,Zr  3,O  24)          115.3855         0.486644   
    263. A(Zr  0,Zr  3,O   9)           37.5171         0.321835   
    264. A(O   6,Zr  3,O  10)           85.9535         0.480886   
    265. A(O  10,Zr  3,O  27)           93.9173         0.520588   
    266. A(Zr  0,Zr  3,O  27)          114.0691         0.359877   
    267. A(O   6,Zr  3,O   9)           68.2178         0.456746   
    268. A(Zr  0,Zr  3,O  24)          101.6582         0.338573   
    269. A(Zr  0,Zr  3,O  26)          153.8533         0.339222   
    270. A(O   9,Zr  3,O  25)           87.1904         0.491022   
    271. A(O   6,Zr  3,O  25)           83.2814         0.513681   
    272. A(Zr  0,Zr  3,O  10)           86.4758         0.337119   
    273. A(O  10,Zr  3,O  26)           70.9693         0.487678   
    274. A(O  24,Zr  3,O  25)           82.3115         0.519922   
    275. A(O  10,Zr  3,O  25)          154.8303         0.517411   
    276. A(Zr  4,Zr  3,O  25)          121.6647         0.360396   
    277. A(O  24,Zr  3,O  26)           77.4792         0.490014   
    278. A(O   9,Zr  4,O  10)           66.7954         0.445013   
    279. A(O   7,Zr  4,O  10)           65.0739         0.450269   
    280. A(Zr  3,Zr  4,O  10)           34.8165         0.333681   
    281. A(O  30,Zr  4,O  31)           81.7220         0.516122   
    282. A(O  29,Zr  4,O  31)           74.1361         0.505284   
    283. A(O   7,Zr  4,O  31)           68.6447         0.460172   
    284. A(O  28,Zr  4,O  31)          126.5488         0.519255   
    285. A(O  10,Zr  4,O  31)          130.7750         0.476707   
    286. A(O   9,Zr  4,O  31)          135.4495         0.454772   
    287. A(Zr  3,Zr  4,O  31)          159.2816         0.340389   
    288. A(Zr  1,Zr  4,O  31)           93.7468         0.350620   
    289. A(O  29,Zr  4,O  30)          135.4206         0.535368   
    290. A(O  28,Zr  4,O  30)           81.8862         0.550348   
    291. A(O  10,Zr  4,O  30)           85.2657         0.504725   
    292. A(O   9,Zr  4,O  30)          142.4807         0.481206   
    293. A(O   7,Zr  4,O  30)           93.6010         0.486996   
    294. A(Zr  3,Zr  4,O   7)           91.5138         0.323246   
    295. A(Zr  3,Zr  4,O   9)           37.5381         0.319839   
    296. A(Zr  1,Zr  4,O  28)          127.3808         0.371585   
    297. A(O   9,Zr  4,O  29)           72.9844         0.471254   
    298. A(Zr  1,Zr  4,O   9)           96.9282         0.329234   
    299. A(O  28,Zr  4,O  29)           83.2514         0.538642   
    300. A(Zr  1,Zr  4,Zr  3)           71.7483         0.254108   
    301. A(Zr  3,Zr  4,O  30)          106.3216         0.358556   
    302. A(O   7,Zr  4,O  28)          162.7463         0.489915   
    303. A(Zr  1,Zr  4,O   7)           36.3937         0.332780   
    304. A(O  10,Zr  4,O  29)          138.4544         0.494177   
    305. A(O   9,Zr  4,O  28)           77.9462         0.484083   
    306. A(O   7,Zr  4,O   9)           96.4053         0.429830   
    307. A(Zr  1,Zr  4,O  30)           71.1059         0.369527   
    308. A(O  10,Zr  4,O  28)           97.8637         0.507775   
    309. A(Zr  3,Zr  4,O  28)           73.9993         0.360534   
    310. A(O   7,Zr  4,O  29)          110.9402         0.476897   
    311. A(Zr  1,Zr  4,O  29)          145.8984         0.362409   
    312. A(Zr  3,Zr  4,O  29)          109.4521         0.351716   
    313. A(Zr  1,Zr  4,O  10)           37.4327         0.343640   
    314. A(O  11,Zr  5,O  35)          100.1401         0.508125   
    315. A(O  34,Zr  5,O  35)           85.2578         0.544719   
    316. A(O  33,Zr  5,O  35)           81.8980         0.551557   
    317. A(O  32,Zr  5,O  35)          124.4950         0.519657   
    318. A(O   8,Zr  5,O  35)           77.7669         0.483933   
    319. A(O   6,Zr  5,O  35)          164.9320         0.495909   
    320. A(Zr  2,Zr  5,O  35)           74.6974         0.366357   
    321. A(O  33,Zr  5,O  34)          138.2414         0.536911   
    322. A(O  32,Zr  5,O  34)           73.7684         0.506020   
    323. A(O  11,Zr  5,O  34)          136.8166         0.494854   
    324. A(Zr  0,Zr  5,O  35)          129.4637         0.374021   
    325. A(O  32,Zr  5,O  33)           81.3202         0.512278   
    326. A(O   6,Zr  5,O  34)          106.9196         0.483025   
    327. A(Zr  2,Zr  5,O  34)          110.2161         0.357575   
    328. A(Zr  0,Zr  5,O  34)          142.0136         0.364996   
    329. A(O  11,Zr  5,O  33)           84.6868         0.500944   
    330. A(O   8,Zr  5,O  33)          140.8201         0.477166   
    331. A(O   6,Zr  5,O  33)           94.0410         0.488938   
    332. A(Zr  0,Zr  5,O  33)           70.8471         0.369138   
    333. A(O  11,Zr  5,O  32)          130.1789         0.472534   
    334. A(O   8,Zr  5,O  32)          137.5679         0.450396   
    335. A(O   6,Zr  5,O  32)           68.6792         0.461356   
    336. A(Zr  2,Zr  5,O  32)          160.7889         0.342805   
    337. A(Zr  0,Zr  5,O  32)           93.0300         0.349818   
    338. A(Zr  2,Zr  5,O   6)           92.4368         0.328809   
    339. A(Zr  0,Zr  5,Zr  2)           72.1812         0.256975   
    340. A(Zr  0,Zr  5,O   6)           36.4642         0.335436   
    341. A(O   8,Zr  5,O  34)           72.9216         0.471428   
    342. A(O   8,Zr  5,O  11)           66.6699         0.440719   
    343. A(O   6,Zr  5,O  11)           64.9437         0.451385   
    344. A(Zr  2,Zr  5,O  11)           35.0166         0.336008   
    345. A(Zr  0,Zr  5,O  11)           37.4615         0.342834   
    346. A(O   6,Zr  5,O   8)           97.0206         0.430468   
    347. A(Zr  2,Zr  5,O  33)          104.3496         0.361605   
    348. A(Zr  2,Zr  5,O   8)           37.8989         0.321751   
    349. A(Zr  0,Zr  5,O   8)           97.3081         0.328183   
    350. A(Zr  3,O   6,Zr  5)          135.1576         0.458695   
    351. A(Zr  0,O   6,Zr  5)          105.7271         0.460518   
    352. A(Zr  0,O   6,Zr  3)          110.8750         0.479389   
    353. A(Zr  2,O   7,Zr  4)          136.2901         0.452038   
    354. A(Zr  1,O   7,Zr  4)          105.5913         0.458323   
    355. A(Zr  1,O   7,Zr  2)          110.3038         0.476664   
    356. A(Zr  1,O   8,Zr  2)          105.0046         0.433013   
    357. A(Zr  2,O   8,Zr  5)          103.5293         0.429439   
    358. A(Zr  1,O   8,Zr  5)          131.1652         0.423897   
    359. A(Zr  3,O   9,Zr  4)          104.4819         0.430943   
    360. A(Zr  0,O   9,Zr  4)          130.6320         0.427091   
    361. A(Zr  0,O   9,Zr  3)          105.2419         0.433203   
    362. A(Zr  3,O  10,Zr  4)          109.8285         0.475240   
    363. A(Zr  1,O  10,Zr  4)          105.6438         0.458659   
    364. A(Zr  1,O  10,Zr  3)          142.4378         0.467356   
    365. A(Zr  2,O  11,Zr  5)          109.1002         0.476293   
    366. A(Zr  0,O  11,Zr  5)          105.3923         0.457543   
    367. A(Zr  0,O  11,Zr  2)          144.2242         0.471395   
    368. A(Zr  0,O  12,C  36)          124.7531         0.500117   
    369. A(Zr  0,O  13,C  37)          128.1264         0.505298   
    370. A(Zr  0,O  14,C  38)          135.5687         0.477179   
    371. A(Zr  0,O  15,C  39)          138.6600         0.506772   
    372. A(Zr  1,O  16,C  40)          138.0395         0.508199   
    373. A(C  40,O  16,Al 68)          102.1275         0.217828   
    374. A(Zr  1,O  16,Al 68)          108.3135         0.231199   
    375. A(Zr  1,O  17,C  41)          133.4149         0.476436   
    376. A(Zr  1,O  18,C  42)          127.5391         0.504724   
    377. A(C  42,O  18,Al 68)          125.9389         0.209677   
    378. A(Zr  1,O  18,Al 68)          105.6786         0.222601   
    379. A(Zr  1,O  19,C  43)          125.2604         0.501374   
    380. A(Zr  2,O  20,C  44)          132.6695         0.509535   
    381. A(Zr  2,O  21,C  38)          139.3331         0.479850   
    382. A(Zr  2,O  22,C  42)          129.8486         0.507088   
    383. A(Zr  2,O  23,C  45)          137.6715         0.479936   
    384. A(Zr  3,O  24,C  46)          137.6056         0.476887   
    385. A(Zr  3,O  25,C  37)          130.5300         0.506676   
    386. A(Zr  3,O  26,C  41)          139.6248         0.478640   
    387. A(Zr  3,O  27,C  47)          132.3499         0.510528   
    388. A(Zr  4,O  28,C  47)          131.0249         0.507668   
    389. A(Zr  4,O  29,C  39)          139.3255         0.495149   
    390. A(Zr  4,O  30,C  43)          127.6531         0.503443   
    391. A(Zr  4,O  31,C  45)          129.3379         0.476775   
    392. A(Zr  5,O  32,C  46)          128.4801         0.474623   
    393. A(Zr  5,O  33,C  36)          126.7209         0.501722   
    394. A(Zr  5,O  34,C  40)          140.9106         0.498183   
    395. A(C  40,O  34,Al 60)           93.6947         0.213492   
    396. A(Zr  5,O  34,Al 60)          111.1055         0.223260   
    397. A(C  44,O  35,Al 60)          110.3217         0.208725   
    398. A(Zr  5,O  35,Al 60)          110.6327         0.222773   
    399. A(Zr  5,O  35,C  44)          130.4099         0.510198   
    400. A(O  12,C  36,O  33)          126.5701         0.463867   
    401. A(O  33,C  36,H  58)          116.7399         0.363418   
    402. A(O  12,C  36,H  58)          116.6891         0.363558   
    403. A(O  13,C  37,O  25)          127.4826         0.464824   
    404. A(O  25,C  37,H  51)          116.2586         0.364150   
    405. A(O  13,C  37,H  51)          116.2588         0.364195   
    406. A(O  14,C  38,O  21)          130.0299         0.467213   
    407. A(O  21,C  38,H  50)          114.9459         0.366428   
    408. A(O  14,C  38,H  50)          115.0205         0.366541   
    409. A(O  15,C  39,O  29)          128.8753         0.468280   
    410. A(O  29,C  39,H  54)          115.5581         0.366512   
    411. A(O  15,C  39,H  54)          115.5606         0.366588   
    412. A(O  16,C  40,O  34)          128.9280         0.468598   
    413. A(O  34,C  40,H  56)          115.5308         0.366705   
    414. A(O  16,C  40,H  56)          115.5379         0.366840   
    415. A(O  17,C  41,O  26)          129.9950         0.466923   
    416. A(O  26,C  41,H  48)          114.9739         0.366198   
    417. A(O  17,C  41,H  48)          115.0292         0.366430   
    418. A(O  18,C  42,O  22)          127.3540         0.464526   
    419. A(O  22,C  42,H  49)          116.3099         0.363973   
    420. A(O  18,C  42,H  49)          116.3353         0.363961   
    421. A(O  30,C  43,H  52)          116.7101         0.363610   
    422. A(O  19,C  43,H  52)          116.6819         0.363729   
    423. A(O  19,C  43,O  30)          126.6071         0.464200   
    424. A(O  35,C  44,H  59)          116.2305         0.364772   
    425. A(O  20,C  44,H  59)          116.2521         0.364746   
    426. A(O  20,C  44,O  35)          127.5145         0.465930   
    427. A(O  31,C  45,H  55)          115.0872         0.365819   
    428. A(O  23,C  45,H  55)          115.1367         0.365415   
    429. A(O  23,C  45,O  31)          129.7748         0.465945   
    430. A(O  32,C  46,H  57)          115.0319         0.365778   
    431. A(O  24,C  46,H  57)          115.0760         0.365346   
    432. A(O  24,C  46,O  32)          129.8910         0.465753   
    433. A(O  28,C  47,H  53)          116.2082         0.364900   
    434. A(O  27,C  47,H  53)          116.2396         0.364880   
    435. A(O  27,C  47,O  28)          127.5521         0.466141   
    436. A(O  34,Al 60,O  35)           47.6369         0.128411   
    437. A(O  35,Al 60,Al 72)          126.5511         0.158292   
    438. A(O  35,Al 60,H  71)          118.4787         0.194595   
    439. A(O  35,Al 60,H  66)          129.3628         0.188304   
    440. A(O  35,Al 60,H  65)           56.1840         0.194558   
    441. A(O  35,Al 60,H  64)           59.6930         0.188271   
    442. A(O  35,Al 60,Al 61)           70.4114         0.160861   
    443. A(O  34,Al 60,Al 72)           84.7490         0.160818   
    444. A(O  34,Al 60,H  71)          160.2338         0.198444   
    445. A(O  34,Al 60,H  66)           85.3738         0.191924   
    446. A(O  34,Al 60,H  65)           50.9257         0.198406   
    447. A(O  34,Al 60,H  64)           77.1898         0.191890   
    448. A(O  34,Al 60,Al 61)           82.5255         0.163480   
    449. A(H  71,Al 60,Al 72)          113.1496         0.281425   
    450. A(H  65,Al 60,Al 72)          116.0581         0.281358   
    451. A(H  64,Al 60,Al 72)           91.5733         0.269901   
    452. A(Al 61,Al 60,Al 72)           82.4332         0.219951   
    453. A(H  66,Al 60,H  71)          111.5434         0.364765   
    454. A(H  65,Al 60,H  71)          110.8962         0.382135   
    455. A(H  64,Al 60,H  71)          109.2227         0.364675   
    456. A(Al 61,Al 60,H  71)          107.2352         0.288557   
    457. A(H  65,Al 60,H  66)          112.4927         0.364670   
    458. A(H  64,Al 60,H  66)           97.4782         0.348251   
    459. A(Al 61,Al 60,H  66)           88.3850         0.276668   
    460. A(H  64,Al 60,H  65)          114.5490         0.364580   
    461. A(Al 61,Al 60,H  65)          124.2833         0.288488   
    462. A(Al 61,Al 60,H  64)           11.0087         0.276606   
    463. A(H  66,Al 60,Al 72)            5.9529         0.269960   
    464. A(H  67,Al 61,Al 68)          100.3328         0.287181   
    465. A(H  64,Al 61,Al 68)          102.0349         0.275430   
    466. A(H  63,Al 61,Al 68)          123.9436         0.287250   
    467. A(H  62,Al 61,Al 68)           10.2467         0.275450   
    468. A(Al 60,Al 61,Al 68)           95.4084         0.223867   
    469. A(H  64,Al 61,H  67)          106.4656         0.364857   
    470. A(H  63,Al 61,H  67)          109.1636         0.382347   
    471. A(H  62,Al 61,H  67)          106.8182         0.364886   
    472. A(Al 60,Al 61,H  67)           99.3695         0.288560   
    473. A(H  63,Al 61,H  64)          113.1165         0.364952   
    474. A(H  62,Al 61,H  64)          107.0470         0.348527   
    475. A(Al 60,Al 61,H  64)           11.0139         0.276727   
    476. A(H  62,Al 61,H  63)          113.7979         0.364982   
    477. A(Al 60,Al 61,H  63)          123.9756         0.288629   
    478. A(Al 60,Al 61,H  62)          101.8222         0.276747   
    479. A(Al 61,H  62,Al 68)          159.5135         0.348314   
    480. A(Al 60,H  64,Al 61)          157.9774         0.348333   
    481. A(Al 60,H  66,Al 72)          168.0953         0.348267   
    482. A(O  18,Al 68,H  75)          121.2423         0.195636   
    483. A(O  18,Al 68,Al 72)          122.4918         0.159146   
    484. A(O  18,Al 68,H  70)           61.4836         0.195548   
    485. A(O  18,Al 68,H  69)          125.5715         0.189286   
    486. A(O  18,Al 68,H  62)           53.7392         0.189237   
    487. A(O  18,Al 68,Al 61)           63.5727         0.161071   
    488. A(O  16,Al 68,H  75)          163.9104         0.202197   
    489. A(O  16,Al 68,Al 72)           82.2732         0.163461   
    490. A(O  16,Al 68,H  70)           54.0898         0.202103   
    491. A(O  16,Al 68,H  69)           82.5631         0.195456   
    492. A(O  16,Al 68,H  62)           75.2480         0.195403   
    493. A(O  16,Al 68,Al 61)           79.5621         0.165505   
    494. A(Al 72,Al 68,H  75)          112.4399         0.281875   
    495. A(H  70,Al 68,H  75)          111.1921         0.381968   
    496. A(H  69,Al 68,H  75)          111.3103         0.364751   
    497. A(H  62,Al 68,H  75)          109.6604         0.364614   
    498. A(Al 61,Al 68,H  75)          107.9674         0.287169   
    499. A(H  70,Al 68,Al 72)          116.6182         0.281715   
    500. A(H  69,Al 68,Al 72)            6.3648         0.270390   
    501. A(H  62,Al 68,Al 72)           91.0192         0.270300   
    502. A(O  16,Al 68,O  18)           48.5749         0.130168   
    503. A(Al 61,Al 68,Al 72)           82.3513         0.219357   
    504. A(H  69,Al 68,H  70)          112.3559         0.364523   
    505. A(H  62,Al 68,H  70)          114.3733         0.364386   
    506. A(Al 61,Al 68,H  70)          123.3109         0.287006   
    507. A(H  62,Al 68,H  69)           97.2237         0.348202   
    508. A(Al 61,Al 68,H  69)           88.6639         0.275369   
    509. A(Al 61,Al 68,H  62)           10.2398         0.275276   
    510. A(Al 68,H  69,Al 72)          167.2704         0.348329   
    511. A(H  73,Al 72,H  74)          112.1049         0.381974   
    512. A(H  69,Al 72,H  74)          110.8761         0.364637   
    513. A(Al 68,Al 72,H  74)          110.9665         0.281797   
    514. A(H  66,Al 72,H  74)          110.9990         0.364569   
    515. A(Al 60,Al 72,H  74)          111.6630         0.281339   
    516. A(H  69,Al 72,H  73)          108.8722         0.364638   
    517. A(Al 68,Al 72,H  73)          113.9873         0.281797   
    518. A(H  66,Al 72,H  73)          108.4985         0.364569   
    519. A(Al 60,Al 72,H  73)          112.9299         0.281339   
    520. A(Al 68,Al 72,H  69)            6.3648         0.270388   
    521. A(H  66,Al 72,H  69)          105.2233         0.348262   
    522. A(Al 60,Al 72,H  69)           99.7119         0.269957   
    523. A(H  66,Al 72,Al 68)           99.5880         0.270343   
    524. A(Al 60,Al 72,Al 68)           93.9701         0.215572   
    525. A(Al 60,Al 72,H  66)            5.9518         0.269912   
    526. D(Zr  5,Zr  2,Zr  1,O   7)    118.7408         0.010000   
    527. D(Zr  5,Zr  2,Zr  1,Zr  4)    102.5244         0.010000   
    528. D(O   7,Zr  2,Zr  1,Zr  4)    -16.2164         0.010000   
    529. D(Zr  4,Zr  3,Zr  0,O   6)   -120.2028         0.010000   
    530. D(Zr  4,Zr  3,Zr  0,Zr  5)   -103.3705         0.010000   
    531. D(O   6,Zr  3,Zr  0,Zr  5)     16.8323         0.010000   
    532. D(Zr  3,Zr  4,Zr  1,Zr  2)   -104.5305         0.010000   
    533. D(Zr  3,Zr  4,Zr  1,O   7)   -119.6233         0.010000   
    534. D(O   7,Zr  4,Zr  1,Zr  2)     15.0927         0.010000   
    535. D(O   7,Zr  4,Zr  3,Zr  0)     74.0509         0.010000   
    536. D(Zr  1,Zr  4,Zr  3,O   6)     75.7967         0.010000   
    537. D(Zr  1,Zr  4,Zr  3,Zr  0)    105.1124         0.010000   
    538. D(Zr  2,Zr  5,Zr  0,O   6)    120.6701         0.010000   
    539. D(O   6,Zr  5,Zr  0,Zr  3)    -15.5664         0.010000   
    540. D(Zr  2,Zr  5,Zr  0,Zr  3)    105.1038         0.010000   
    541. D(Zr  0,Zr  5,Zr  2,Zr  1)   -104.4746         0.010000   
    542. D(O   6,Zr  5,Zr  2,Zr  1)    -73.7009         0.010000   
    543. D(Zr  0,Zr  5,Zr  2,O   7)    -74.5701         0.010000   
    544. D(Zr  0,O   6,Zr  5,O   8)    -92.8090         0.010000   
    545. D(Zr  3,O   6,Zr  5,Zr  0)    143.9131         0.010000   
    546. D(Zr  0,O   6,Zr  5,Zr  2)    -55.0447         0.010000   
    547. D(Zr  5,O   6,Zr  3,Zr  0)   -142.6421         0.010000   
    548. D(Zr  5,O   6,Zr  0,Zr  3)    153.6070         0.010000   
    549. D(Zr  3,O   6,Zr  0,O   9)    -21.9855         0.010000   
    550. D(Zr  0,O   6,Zr  3,O   9)     22.1068         0.010000   
    551. D(Zr  0,O   6,Zr  3,Zr  4)     54.4450         0.010000   
    552. D(Zr  3,O   6,Zr  0,Zr  5)   -153.6070         0.010000   
    553. D(Zr  4,O   7,Zr  1,Zr  2)   -154.6115         0.010000   
    554. D(Zr  1,O   7,Zr  2,Zr  5)    -55.9667         0.010000   
    555. D(Zr  2,O   7,Zr  1,O   8)     22.6236         0.010000   
    556. D(Zr  2,O   7,Zr  1,Zr  4)    154.6115         0.010000   
    557. D(Zr  2,O   7,Zr  4,Zr  1)   -144.4141         0.010000   
    558. D(Zr  1,O   7,Zr  4,O   9)     92.9965         0.010000   
    559. D(Zr  1,O   7,Zr  4,Zr  3)     55.6746         0.010000   
    560. D(Zr  4,O   7,Zr  2,Zr  1)    143.2986         0.010000   
    561. D(Zr  1,O   7,Zr  2,O   8)    -22.8412         0.010000   
    562. D(Zr  1,O   8,Zr  5,Zr  2)   -124.3404         0.010000   
    563. D(Zr  2,O   8,Zr  5,Zr  0)     48.1647         0.010000   
    564. D(Zr  1,O   8,Zr  5,Zr  0)    -76.1756         0.010000   
    565. D(Zr  5,O   8,Zr  2,Zr  1)   -139.9436         0.010000   
    566. D(Zr  1,O   8,Zr  2,O   7)     21.1571         0.010000   
    567. D(Zr  1,O   8,Zr  2,Zr  5)    139.9436         0.010000   
    568. D(Zr  5,O   8,Zr  1,Zr  2)    123.7855         0.010000   
    569. D(Zr  2,O   8,Zr  1,O   7)    -21.3792         0.010000   
    570. D(Zr  2,O   8,Zr  1,Zr  4)    -48.7452         0.010000   
    571. D(Zr  0,O   9,Zr  4,Zr  3)    125.4086         0.010000   
    572. D(Zr  3,O   9,Zr  4,Zr  1)    -47.4720         0.010000   
    573. D(Zr  0,O   9,Zr  3,O   6)    -20.4917         0.010000   
    574. D(Zr  0,O   9,Zr  4,Zr  1)     77.9366         0.010000   
    575. D(Zr  4,O   9,Zr  3,Zr  0)    140.1267         0.010000   
    576. D(Zr  4,O   9,Zr  0,Zr  3)   -125.1233         0.010000   
    577. D(Zr  3,O   9,Zr  0,Zr  5)     47.9524         0.010000   
    578. D(Zr  0,O   9,Zr  3,Zr  4)   -140.1267         0.010000   
    579. D(Zr  3,O   9,Zr  0,O   6)     20.5758         0.010000   
    580. D(Zr  1,O  10,Zr  4,O   7)    -31.4372         0.010000   
    581. D(Zr  1,O  10,Zr  4,Zr  3)   -167.4324         0.010000   
    582. D(Zr  4,O  10,Zr  3,Zr  0)    -60.1525         0.010000   
    583. D(Zr  1,O  10,Zr  3,Zr  4)    159.8972         0.010000   
    584. D(Zr  1,O  10,Zr  3,Zr  0)     99.7448         0.010000   
    585. D(Zr  4,O  10,Zr  1,Zr  2)     61.3259         0.010000   
    586. D(Zr  3,O  10,Zr  1,Zr  4)   -160.3809         0.010000   
    587. D(Zr  3,O  10,Zr  4,Zr  1)    167.4324         0.010000   
    588. D(Zr  3,O  10,Zr  1,Zr  2)    -99.0550         0.010000   
    589. D(Zr  2,O  11,Zr  5,Zr  0)   -170.3509         0.010000   
    590. D(Zr  0,O  11,Zr  5,Zr  2)    170.3509         0.010000   
    591. D(Zr  5,O  11,Zr  2,Zr  1)     62.4611         0.010000   
    592. D(Zr  0,O  11,Zr  2,Zr  5)   -163.9531         0.010000   
    593. D(Zr  0,O  11,Zr  2,Zr  1)   -101.4920         0.010000   
    594. D(Zr  5,O  11,Zr  0,Zr  3)    -61.7765         0.010000   
    595. D(Zr  0,O  11,Zr  5,O   6)     31.8431         0.010000   
    596. D(Zr  2,O  11,Zr  0,Zr  5)    164.2807         0.010000   
    597. D(Zr  2,O  11,Zr  0,Zr  3)    102.5043         0.010000   
    598. D(C  36,O  12,Zr  0,Zr  5)     32.2503         0.010000   
    599. D(C  36,O  12,Zr  0,Zr  3)     95.5235         0.010000   
    600. D(C  37,O  13,Zr  0,Zr  5)    -22.3681         0.010000   
    601. D(C  37,O  13,Zr  0,Zr  3)     25.0260         0.010000   
    602. D(C  38,O  14,Zr  0,Zr  5)     65.8484         0.010000   
    603. D(C  38,O  14,Zr  0,Zr  3)     33.8627         0.010000   
    604. D(C  39,O  15,Zr  0,Zr  5)     60.8271         0.010000   
    605. D(C  39,O  15,Zr  0,Zr  3)    -24.7030         0.010000   
    606. D(Al 68,O  16,Zr  1,Zr  2)    -98.6770         0.010000   
    607. D(C  40,O  16,Zr  1,Zr  4)    -50.7245         0.010000   
    608. D(C  40,O  16,Zr  1,Zr  2)     35.6760         0.010000   
    609. D(C  41,O  17,Zr  1,Zr  4)    -70.3644         0.010000   
    610. D(C  41,O  17,Zr  1,Zr  2)    -37.0782         0.010000   
    611. D(Al 68,O  18,Zr  1,Zr  2)    141.4254         0.010000   
    612. D(C  42,O  18,Zr  1,Zr  4)     19.7195         0.010000   
    613. D(C  42,O  18,Zr  1,Zr  2)    -28.4645         0.010000   
    614. D(C  43,O  19,Zr  1,Zr  4)    -31.0338         0.010000   
    615. D(C  43,O  19,Zr  1,Zr  2)    -95.1920         0.010000   
    616. D(C  44,O  20,Zr  2,Zr  5)      7.3606         0.010000   
    617. D(C  44,O  20,Zr  2,Zr  1)    -53.1459         0.010000   
    618. D(C  38,O  21,Zr  2,Zr  5)    -35.3020         0.010000   
    619. D(C  38,O  21,Zr  2,Zr  1)     17.3215         0.010000   
    620. D(C  42,O  22,Zr  2,Zr  5)     25.3181         0.010000   
    621. D(C  42,O  22,Zr  2,Zr  1)    -24.8555         0.010000   
    622. D(C  45,O  23,Zr  2,Zr  5)    -70.3608         0.010000   
    623. D(C  45,O  23,Zr  2,Zr  1)      4.1969         0.010000   
    624. D(C  46,O  24,Zr  3,Zr  4)     64.4297         0.010000   
    625. D(C  46,O  24,Zr  3,Zr  0)     -6.9937         0.010000   
    626. D(C  37,O  25,Zr  3,Zr  4)    -27.6461         0.010000   
    627. D(C  37,O  25,Zr  3,Zr  0)     24.0821         0.010000   
    628. D(C  41,O  26,Zr  3,Zr  4)     26.8047         0.010000   
    629. D(C  41,O  26,Zr  3,Zr  0)    -30.0328         0.010000   
    630. D(C  47,O  27,Zr  3,Zr  4)    -10.6043         0.010000   
    631. D(C  47,O  27,Zr  3,Zr  0)     48.1389         0.010000   
    632. D(C  47,O  28,Zr  4,Zr  3)    -11.1637         0.010000   
    633. D(C  47,O  28,Zr  4,Zr  1)     39.8513         0.010000   
    634. D(C  39,O  29,Zr  4,Zr  3)     34.7887         0.010000   
    635. D(C  39,O  29,Zr  4,Zr  1)    -51.1503         0.010000   
    636. D(C  43,O  30,Zr  4,Zr  3)    -97.8203         0.010000   
    637. D(C  43,O  30,Zr  4,Zr  1)    -34.2535         0.010000   
    638. D(C  45,O  31,Zr  4,Zr  3)    -30.6245         0.010000   
    639. D(C  45,O  31,Zr  4,Zr  1)    -75.0595         0.010000   
    640. D(C  46,O  32,Zr  5,Zr  2)     37.0715         0.010000   
    641. D(C  46,O  32,Zr  5,Zr  0)     75.8686         0.010000   
    642. D(C  36,O  33,Zr  5,Zr  2)    101.3870         0.010000   
    643. D(C  36,O  33,Zr  5,Zr  0)     36.4251         0.010000   
    644. D(Al 60,O  34,Zr  5,Zr  0)    178.8292         0.010000   
    645. D(C  40,O  34,Zr  5,Zr  2)    -33.6107         0.010000   
    646. D(C  40,O  34,Zr  5,Zr  0)     53.0492         0.010000   
    647. D(Al 60,O  35,Zr  5,Zr  0)    176.9834         0.010000   
    648. D(C  44,O  35,Zr  5,Zr  2)     11.3684         0.010000   
    649. D(C  44,O  35,Zr  5,Zr  0)    -39.1227         0.010000   
    650. D(O  12,C  36,O  33,Zr  5)    -28.7457         0.045465   
    651. D(H  58,C  36,O  12,Zr  0)    158.9903         0.045693   
    652. D(O  33,C  36,O  12,Zr  0)    -20.6595         0.045693   
    653. D(H  58,C  36,O  33,Zr  5)    151.6046         0.045465   
    654. D(H  51,C  37,O  25,Zr  3)    163.3164         0.046117   
    655. D(O  13,C  37,O  25,Zr  3)    -16.6091         0.046117   
    656. D(H  51,C  37,O  13,Zr  0)    160.4445         0.046191   
    657. D(O  25,C  37,O  13,Zr  0)    -19.6299         0.046191   
    658. D(H  50,C  38,O  21,Zr  2)    173.5521         0.047522   
    659. D(O  14,C  38,O  21,Zr  2)     -5.7034         0.047522   
    660. D(H  50,C  38,O  14,Zr  0)    165.1408         0.047714   
    661. D(O  21,C  38,O  14,Zr  0)    -15.6041         0.047714   
    662. D(H  54,C  39,O  29,Zr  4)   -176.7747         0.048219   
    663. D(O  15,C  39,O  29,Zr  4)      4.1632         0.048219   
    664. D(H  54,C  39,O  15,Zr  0)    169.9781         0.048350   
    665. D(O  29,C  39,O  15,Zr  0)    -10.9598         0.048350   
    666. D(H  56,C  40,O  34,Zr  5)   -173.8117         0.067022   
    667. D(O  16,C  40,O  34,Al 60)   -125.1861         0.067022   
    668. D(O  16,C  40,O  34,Zr  5)      5.4885         0.067022   
    669. D(H  56,C  40,O  16,Zr  1)    172.6110         0.067347   
    670. D(O  34,C  40,O  16,Al 68)    129.3373         0.067347   
    671. D(O  34,C  40,O  16,Zr  1)     -6.6892         0.067347   
    672. D(H  48,C  41,O  26,Zr  3)   -167.1673         0.047243   
    673. D(O  17,C  41,O  26,Zr  3)     12.2927         0.047243   
    674. D(H  48,C  41,O  17,Zr  1)   -162.7561         0.047633   
    675. D(O  26,C  41,O  17,Zr  1)     17.7841         0.047633   
    676. D(H  49,C  42,O  22,Zr  2)   -164.5029         0.059650   
    677. D(O  18,C  42,O  22,Zr  2)     15.1616         0.059650   
    678. D(H  49,C  42,O  18,Zr  1)   -156.2492         0.071193   
    679. D(O  22,C  42,O  18,Al 68)   -143.8649         0.071193   
    680. D(O  22,C  42,O  18,Zr  1)     24.0863         0.071193   
    681. D(H  52,C  43,O  30,Zr  4)   -153.8968         0.045681   
    682. D(O  19,C  43,O  30,Zr  4)     26.4595         0.045681   
    683. D(H  52,C  43,O  19,Zr  1)   -158.9987         0.045876   
    684. D(O  30,C  43,O  19,Zr  1)     20.6451         0.045876   
    685. D(H  59,C  44,O  35,Zr  5)    169.2427         0.068821   
    686. D(O  20,C  44,O  35,Al 60)    132.5645         0.068821   
    687. D(O  20,C  44,O  35,Zr  5)    -11.4140         0.068821   
    688. D(H  59,C  44,O  20,Zr  2)    176.9870         0.060723   
    689. D(O  35,C  44,O  20,Zr  2)     -2.3562         0.060723   
    690. D(H  55,C  45,O  31,Zr  4)   -161.9704         0.047174   
    691. D(O  23,C  45,O  31,Zr  4)     17.5909         0.047174   
    692. D(H  55,C  45,O  23,Zr  2)   -150.3089         0.046500   
    693. D(O  31,C  45,O  23,Zr  2)     30.1300         0.046500   
    694. D(H  57,C  46,O  32,Zr  5)    162.3362         0.047080   
    695. D(O  24,C  46,O  32,Zr  5)    -17.2523         0.047080   
    696. D(H  57,C  46,O  24,Zr  3)    151.6391         0.046361   
    697. D(O  32,C  46,O  24,Zr  3)    -28.7725         0.046361   
    698. D(H  53,C  47,O  28,Zr  4)   -171.2750         0.046973   
    699. D(O  27,C  47,O  28,Zr  4)      8.8040         0.046973   
    700. D(H  53,C  47,O  27,Zr  3)   -172.6064         0.046939   
    701. D(O  28,C  47,O  27,Zr  3)      7.3145         0.046939   
    702. D(H  64,Al 60,O  35,Zr  5)    116.9675         0.010000   
    703. D(Al 61,Al 60,O  35,C  44)    -37.2232         0.010000   
    704. D(Al 61,Al 60,O  35,Zr  5)    114.1909         0.010000   
    705. D(H  64,Al 60,O  34,Zr  5)    -76.4684         0.010000   
    706. D(Al 61,Al 60,O  34,C  40)     62.9083         0.010000   
    707. D(Al 61,Al 60,O  34,Zr  5)    -86.2548         0.010000   
    708. D(H  63,Al 61,Al 60,H  64)     10.1652         0.010000   
    709. D(H  62,Al 61,Al 60,H  65)    -90.0811         0.010000   
    710. D(H  62,Al 61,Al 60,H  64)   -119.4912         0.010000   
    711. D(Al 68,H  62,Al 61,H  63)    172.3148         0.010000   
    712. D(Al 68,H  62,Al 61,Al 60)    -51.9341         0.010000   
    713. D(Al 60,H  64,Al 61,H  63)   -170.8434         0.010000   
    714. D(Al 60,H  64,Al 61,H  62)     63.0143         0.010000   
    715. D(Al 61,H  64,Al 60,H  66)    -34.5518         0.010000   
    716. D(Al 61,H  64,Al 60,H  65)   -153.5086         0.010000   
    717. D(Al 72,H  66,Al 60,H  64)      7.3149         0.010000   
    718. D(Al 72,H  66,Al 60,Al 61)      1.0949         0.010000   
    719. D(H  70,Al 68,H  62,Al 61)    152.0790         0.010000   
    720. D(H  69,Al 68,Al 61,Al 60)    -17.5072         0.010000   
    721. D(H  62,Al 68,Al 61,H  63)     -8.4818         0.010000   
    722. D(H  62,Al 68,Al 61,Al 60)    129.2812         0.010000   
    723. D(H  62,Al 68,O  18,Zr  1)   -125.0386         0.010000   
    724. D(Al 61,Al 68,O  18,C  42)     48.4149         0.010000   
    725. D(Al 61,Al 68,O  18,Zr  1)   -121.6857         0.010000   
    726. D(H  62,Al 68,O  16,Zr  1)     76.6511         0.010000   
    727. D(H  69,Al 68,H  62,Al 61)     33.5019         0.010000   
    728. D(Al 61,Al 68,O  16,C  40)    -64.5549         0.010000   
    729. D(Al 61,Al 68,O  16,Zr  1)     86.1698         0.010000   
    730. D(Al 72,H  69,Al 68,H  62)    -12.9536         0.010000   
    731. D(Al 72,H  69,Al 68,Al 61)     -7.3211         0.010000   
    732. D(H  66,Al 72,H  69,Al 68)     28.0530         0.010000   
    733. D(H  66,Al 72,Al 68,Al 61)     20.0158         0.010000   
    734. D(Al 60,Al 72,Al 68,H  62)     12.5696         0.010000   
    735. D(Al 60,Al 72,Al 68,Al 61)     18.0355         0.010000   
    736. D(H  69,Al 72,H  66,Al 60)    -22.4485         0.010000   
    737. D(Al 68,Al 72,H  66,Al 60)    -19.4176         0.010000   
    738. D(Al 68,Al 72,Al 60,Al 61)    -18.0794         0.010000   
    739. D(Al 60,Al 72,H  69,Al 68)     25.7508         0.010000   
    740. D(H  66,Al 72,Al 60,H  64)   -172.7449         0.010000   
    741. D(H  66,Al 72,Al 60,Al 61)   -178.8959         0.010000   
    -----------------------------------------------------------------

Number of atoms                         .... 76
Number of degrees of freedom            .... 741


         *************************************************************
         *                GEOMETRY OPTIMIZATION CYCLE   1            *
         *************************************************************
---------------------------------
CARTESIAN COORDINATES (ANGSTROEM)
---------------------------------
  Zr    -0.266962    2.157328    1.413712
  Zr     0.058625   -2.328210   -1.293460
  Zr     1.666272   -1.330244    1.564536
  Zr    -1.912926    1.129147   -1.417519
  Zr     1.457055    0.696270   -1.819239
  Zr    -1.681858   -0.854895    1.948074
  O     -1.683427    0.845098    0.637328
  O      1.453330   -1.008887   -0.498372
  O     -0.227277   -2.045554    0.838974
  O     -0.012678    1.859959   -0.717278
  O     -0.399673   -0.276562   -1.632015
  O      0.185950    0.103068    1.724080
  O     -1.696334    2.417148    2.785022
  O     -1.118452    3.767371    0.626860
  O      0.845477    1.928995    3.146906
  O      1.454037    3.046236    0.978221
  O     -1.673591   -3.201046   -0.886684
  O     -1.048464   -2.118811   -3.034962
  O      0.924879   -3.932880   -0.509090
  O      1.499174   -2.586508   -2.648632
  O      1.122245   -2.385026    3.141259
  O      2.192629    0.004496    3.047403
  O      2.495385   -3.019537    0.954090
  O      3.416007   -0.522886    0.835120
  O     -3.687204    0.409829   -0.631806
  O     -2.678003    2.866932   -0.856591
  O     -2.489348   -0.272352   -2.822315
  O     -1.408324    2.119619   -3.045131
  O      0.918202    2.053372   -3.155422
  O      2.438694    2.251747   -0.986724
  O      1.687073   -0.412210   -3.453470
  O      3.381457    0.021108   -1.453328
  O     -3.606383   -0.125064    1.659337
  O     -1.838282    0.243641    3.602978
  O     -2.702135   -2.314233    1.014784
  O     -1.201434   -2.251030    3.254812
  C     -2.047705    1.527676    3.668590
  C     -2.163571    3.826945   -0.145177
  C      1.790282    1.133895    3.542817
  C      2.330679    3.053767    0.024887
  C     -2.634589   -3.079385   -0.027934
  C     -2.046956   -1.362327   -3.370916
  C      1.999418   -3.975488    0.223702
  C      1.877304   -1.698498   -3.521842
  C     -0.037060   -2.662497    3.657686
  C      3.949390   -0.273233   -0.323726
  C     -4.194731    0.182870    0.543612
  C     -0.256510    2.437845   -3.553879
  H     -2.592378   -1.686138   -4.251323
  H      2.543634   -4.921615    0.230560
  H      2.319651    1.457702    4.432630
  H     -2.665989    4.793694   -0.203730
  H      2.402767   -2.070874   -4.404057
  H     -0.277965    3.106279   -4.414665
  H      3.087113    3.830617    0.089891
  H      5.035023   -0.310201   -0.349741
  H     -3.508661   -3.696348   -0.213057
  H     -5.277304    0.256236    0.599735
  H     -2.565720    1.896501    4.557004
  H     -0.033201   -3.325242    4.523408
  Al    -3.353364   -4.826141    3.081362
  Al    -0.376682   -5.815843    2.132038
  H     -0.577351   -5.969264    0.482344
  H      0.980003   -5.088754    2.550541
  H     -1.738446   -5.051833    2.721626
  H     -3.802995   -3.298140    3.182126
  H     -3.984114   -5.590215    1.737733
  H     -0.388278   -7.291889    2.737743
  Al    -1.236748   -6.447287   -0.975640
  H     -2.834067   -6.457425   -0.490355
  H     -0.974728   -5.433773   -2.181153
  H     -3.707635   -5.613288    4.423255
  Al    -4.285570   -6.443124    0.334263
  H     -5.360754   -5.637163   -0.527075
  H     -4.769024   -7.928834    0.660515
  H     -0.731258   -7.916845   -1.337347

----------------------------
CARTESIAN COORDINATES (A.U.)
----------------------------
  NO LB      ZA    FRAG     MASS         X           Y           Z
   0 Zr   12.0000*   0    91.220   -0.504486    4.076758    2.671529
   1 Zr   12.0000*   0    91.220    0.110784   -4.399679   -2.444285
   2 Zr   12.0000*   0    91.220    3.148797   -2.513796    2.956545
   3 Zr   12.0000*   0    91.220   -3.614906    2.133779   -2.678722
   4 Zr   12.0000*   0    91.220    2.753435    1.315759   -3.437863
   5 Zr   12.0000*   0    91.220   -3.178251   -1.615518    3.681326
   6 O     8.0000    0    15.999   -3.181216    1.597004    1.204376
   7 O     8.0000    0    15.999    2.746395   -1.906521   -0.941786
   8 O     8.0000    0    15.999   -0.429491   -3.865537    1.585431
   9 O     8.0000    0    15.999   -0.023959    3.514814   -1.355460
  10 O     8.0000    0    15.999   -0.755273   -0.522626   -3.084061
  11 O     8.0000    0    15.999    0.351395    0.194770    3.258038
  12 O     8.0000    0    15.999   -3.205607    4.567747    5.262929
  13 O     8.0000    0    15.999   -2.113568    7.119300    1.184594
  14 O     8.0000    0    15.999    1.597721    3.645272    5.946791
  15 O     8.0000    0    15.999    2.747731    5.756552    1.848569
  16 O     8.0000    0    15.999   -3.162628   -6.049101   -1.675589
  17 O     8.0000    0    15.999   -1.981309   -4.003973   -5.735247
  18 O     8.0000    0    15.999    1.747769   -7.432066   -0.962040
  19 O     8.0000    0    15.999    2.833028   -4.887792   -5.005188
  20 O     8.0000    0    15.999    2.120736   -4.507045    5.936120
  21 O     8.0000    0    15.999    4.143468    0.008497    5.758758
  22 O     8.0000    0    15.999    4.715594   -5.706097    1.802969
  23 O     8.0000    0    15.999    6.455318   -0.988110    1.578148
  24 O     8.0000    0    15.999   -6.967805    0.774465   -1.193940
  25 O     8.0000    0    15.999   -5.060693    5.417716   -1.618722
  26 O     8.0000    0    15.999   -4.704186   -0.514671   -5.333403
  27 O     8.0000    0    15.999   -2.661347    4.005499   -5.754464
  28 O     8.0000    0    15.999    1.735150    3.880310   -5.962883
  29 O     8.0000    0    15.999    4.608464    4.255185   -1.864638
  30 O     8.0000    0    15.999    3.188106   -0.778964   -6.526113
  31 O     8.0000    0    15.999    6.390027    0.039888   -2.746392
  32 O     8.0000    0    15.999   -6.815075   -0.236337    3.135692
  33 O     8.0000    0    15.999   -3.473849    0.460415    6.808641
  34 O     8.0000    0    15.999   -5.106295   -4.373266    1.917665
  35 O     8.0000    0    15.999   -2.270382   -4.253830    6.150704
  36 C     6.0000    0    12.011   -3.869602    2.886890    6.932631
  37 C     6.0000    0    12.011   -4.088556    7.231879   -0.274345
  38 C     6.0000    0    12.011    3.383143    2.142752    6.694953
  39 C     6.0000    0    12.011    4.404344    5.770783    0.047029
  40 C     6.0000    0    12.011   -4.978652   -5.819195   -0.052788
  41 C     6.0000    0    12.011   -3.868186   -2.574426   -6.370109
  42 C     6.0000    0    12.011    3.778352   -7.512583    0.422735
  43 C     6.0000    0    12.011    3.547591   -3.209695   -6.655316
  44 C     6.0000    0    12.011   -0.070033   -5.031391    6.912024
  45 C     6.0000    0    12.011    7.463265   -0.516336   -0.611754
  46 C     6.0000    0    12.011   -7.926893    0.345574    1.027277
  47 C     6.0000    0    12.011   -0.484734    4.606859   -6.715858
  48 H     1.0000    0     1.008   -4.898884   -3.186339   -8.033837
  49 H     1.0000    0     1.008    4.806772   -9.300504    0.435696
  50 H     1.0000    0     1.008    4.383506    2.754657    8.376457
  51 H     1.0000    0     1.008   -5.037989    9.058770   -0.384994
  52 H     1.0000    0     1.008    4.540571   -3.913384   -8.322462
  53 H     1.0000    0     1.008   -0.525279    5.870016   -8.342508
  54 H     1.0000    0     1.008    5.833798    7.238817    0.169870
  55 H     1.0000    0     1.008    9.514814   -0.586195   -0.660914
  56 H     1.0000    0     1.008   -6.630408   -6.985085   -0.402620
  57 H     1.0000    0     1.008   -9.972660    0.484217    1.133334
  58 H     1.0000    0     1.008   -4.848507    3.583868    8.611489
  59 H     1.0000    0     1.008   -0.062742   -6.283797    8.548003
  60 Al   13.0000    0    26.982   -6.336939   -9.120085    5.822930
  61 Al   13.0000    0    26.982   -0.711826  -10.990351    4.028967
  62 H     1.0000    0     1.008   -1.091036  -11.280274    0.911498
  63 H     1.0000    0     1.008    1.851938   -9.616352    4.819824
  64 H     1.0000    0     1.008   -3.285187   -9.546581    5.143127
  65 H     1.0000    0     1.008   -7.186619   -6.232581    6.013346
  66 H     1.0000    0     1.008   -7.528884  -10.563975    3.283840
  67 H     1.0000    0     1.008   -0.733738  -13.779673    5.173585
  68 Al   13.0000    0    26.982   -2.337115  -12.183607   -1.843692
  69 H     1.0000    0     1.008   -5.355610  -12.202764   -0.926637
  70 H     1.0000    0     1.008   -1.841969  -10.268342   -4.121782
  71 H     1.0000    0     1.008   -7.006414  -10.607577    8.358741
  72 Al   13.0000    0    26.982   -8.098553  -12.175740    0.631666
  73 H     1.0000    0     1.008  -10.130356  -10.652695   -0.996028
  74 H     1.0000    0     1.008   -9.012149  -14.983324    1.248192
  75 H     1.0000    0     1.008   -1.381878  -14.960669   -2.527220
* core charge reduced due to ECP

--------------------------------
INTERNAL COORDINATES (ANGSTROEM)
--------------------------------
 Zr     0   0   0     0.000000000000     0.00000000     0.00000000
 Zr     1   0   0     5.249269737508     0.00000000     0.00000000
 Zr     2   1   0     3.427624123712    49.47962991     0.00000000
 Zr     1   2   3     3.432523571389    49.33774480   181.20511097
 Zr     2   1   3     3.373355502999    48.69719724   259.57632976
 Zr     1   2   3     3.370602187479    49.01555549   280.16017507
 O      1   2   3     2.081127272427    46.45069128   228.33928168
 O      2   1   3     2.077974821992    45.71465591   312.12925595
 O      3   2   1     2.150263753433    37.69854120    76.25864453
 O      4   1   2     2.152989199761    37.51710209   284.25908165
 O      4   1   2     2.076525914421    86.47575838   341.25913506
 O      3   2   1     2.066685299996    86.00550564    17.77510870
 O      1   2   3     1.997773902565   120.63140272   265.05270090
 O      1   2   3     1.984039231279   121.03212902   165.50566718
 O      1   2   3     2.072105277999   107.69273037   353.59501147
 O      1   2   3     1.985358514509   102.45653617    73.25255202
 O      2   1   3     1.981887976360   102.48995503   107.77021909
 O      2   1   3     2.074203859418   108.27816886   186.45565106
 O      2   1   3     1.985094597465   120.93315231    13.97245153
 O      2   1   3     1.994590510535   120.38774571   275.52961396
 O      3   2   1     1.973470226686   112.41236156   113.06262117
 O      3   2   1     2.063365524948   155.12376307   354.19036872
 O      3   2   1     1.978328742586    71.98086526   189.09023084
 O      3   2   1     2.060448958853   102.54496978   266.79092506
 O      4   1   2     2.069498631190   101.65824122    96.46419569
 O      4   1   2     1.979868225411    71.86236619   174.26351223
 O      4   1   2     2.066377557088   153.85332675    11.16895788
 O      4   1   2     1.970984360357   114.06908997   248.53915154
 O      5   2   1     1.979260938065   127.38075056   255.83434765
 O      5   2   1     2.018961521359   145.89842424    45.67397249
 O      5   2   1     1.988051189308    71.10591393   192.52870301
 O      5   2   1     2.071969211199    93.74676313   112.60246527
 O      6   1   2     2.078416769394    93.02995649   244.83808492
 O      6   1   2     1.992475310272    70.84714987   165.11248353
 O      6   1   2     2.010387963651   142.01357818   312.06974005
 O      6   1   2     1.971690903644   129.46370225   103.74461193
 C     13   1   2     1.302041924439   124.75310353    44.12507454
 C     14   1   2     1.300716364338   128.12641771    37.41023656
 C     15   1   2     1.296759167080   135.56866760    19.49845341
 C     16   1   2     1.295145945826   138.66003113    26.22698801
[...]
Total Mass          ...  1303.54 AMU
Quasi RRHO          ...     True
Cut-Off Frequency   ...     1.00 cm^-1

Throughout the following assumptions are being made:
  (1) The electronic state is orbitally nondegenerate
  (2) There are no thermally accessible electronically excited states
  (3) Hindered rotations indicated by low frequency modes are not
      treated as such but are treated as vibrations and this may
      cause some error
  (4) All equations used are the standard statistical mechanics
      equations for an ideal gas
  (5) All vibrations are strictly harmonic

freq.       5.21  E(vib)   ...       0.59 
freq.      16.90  E(vib)   ...       0.57 
freq.      20.84  E(vib)   ...       0.56 
freq.      26.66  E(vib)   ...       0.56 
freq.      28.14  E(vib)   ...       0.55 
freq.      33.52  E(vib)   ...       0.55 
freq.      37.59  E(vib)   ...       0.54 
freq.      44.70  E(vib)   ...       0.53 
freq.      52.75  E(vib)   ...       0.52 
freq.      57.53  E(vib)   ...       0.51 
freq.      78.76  E(vib)   ...       0.49 
freq.      79.53  E(vib)   ...       0.49 
freq.      86.33  E(vib)   ...       0.48 
freq.      92.70  E(vib)   ...       0.47 
freq.      94.10  E(vib)   ...       0.47 
freq.      96.74  E(vib)   ...       0.46 
freq.      98.76  E(vib)   ...       0.46 
freq.     100.09  E(vib)   ...       0.46 
freq.     104.71  E(vib)   ...       0.46 
freq.     106.44  E(vib)   ...       0.45 
freq.     109.07  E(vib)   ...       0.45 
freq.     110.48  E(vib)   ...       0.45 
freq.     114.56  E(vib)   ...       0.44 
freq.     117.95  E(vib)   ...       0.44 
freq.     126.50  E(vib)   ...       0.43 
freq.     129.95  E(vib)   ...       0.43 
freq.     141.99  E(vib)   ...       0.41 
freq.     147.65  E(vib)   ...       0.41 
freq.     149.70  E(vib)   ...       0.40 
freq.     150.50  E(vib)   ...       0.40 
freq.     151.72  E(vib)   ...       0.40 
freq.     152.06  E(vib)   ...       0.40 
freq.     154.92  E(vib)   ...       0.40 
freq.     158.57  E(vib)   ...       0.39 
freq.     160.06  E(vib)   ...       0.39 
freq.     161.35  E(vib)   ...       0.39 
freq.     162.88  E(vib)   ...       0.39 
freq.     166.63  E(vib)   ...       0.39 
freq.     166.82  E(vib)   ...       0.39 
freq.     169.64  E(vib)   ...       0.38 
freq.     170.19  E(vib)   ...       0.38 
freq.     171.34  E(vib)   ...       0.38 
freq.     186.91  E(vib)   ...       0.36 
freq.     187.27  E(vib)   ...       0.36 
freq.     188.60  E(vib)   ...       0.36 
freq.     192.47  E(vib)   ...       0.36 
freq.     193.21  E(vib)   ...       0.36 
freq.     195.15  E(vib)   ...       0.36 
freq.     203.10  E(vib)   ...       0.35 
freq.     207.15  E(vib)   ...       0.34 
freq.     212.87  E(vib)   ...       0.34 
freq.     213.81  E(vib)   ...       0.34 
freq.     229.48  E(vib)   ...       0.32 
freq.     231.26  E(vib)   ...       0.32 
freq.     232.35  E(vib)   ...       0.32 
freq.     237.85  E(vib)   ...       0.32 
freq.     242.91  E(vib)   ...       0.31 
freq.     253.24  E(vib)   ...       0.30 
freq.     258.92  E(vib)   ...       0.30 
freq.     260.44  E(vib)   ...       0.30 
freq.     261.52  E(vib)   ...       0.30 
freq.     261.64  E(vib)   ...       0.30 
freq.     262.41  E(vib)   ...       0.29 
freq.     263.86  E(vib)   ...       0.29 
freq.     266.33  E(vib)   ...       0.29 
freq.     267.62  E(vib)   ...       0.29 
freq.     272.60  E(vib)   ...       0.29 
freq.     273.65  E(vib)   ...       0.28 
freq.     274.98  E(vib)   ...       0.28 
freq.     276.04  E(vib)   ...       0.28 
freq.     277.70  E(vib)   ...       0.28 
freq.     279.17  E(vib)   ...       0.28 
freq.     282.76  E(vib)   ...       0.28 
freq.     288.47  E(vib)   ...       0.27 
freq.     289.14  E(vib)   ...       0.27 
freq.     292.81  E(vib)   ...       0.27 
freq.     293.83  E(vib)   ...       0.27 
freq.     299.75  E(vib)   ...       0.26 
freq.     302.01  E(vib)   ...       0.26 
freq.     305.62  E(vib)   ...       0.26 
freq.     306.02  E(vib)   ...       0.26 
freq.     309.86  E(vib)   ...       0.26 
freq.     313.01  E(vib)   ...       0.25 
freq.     314.59  E(vib)   ...       0.25 
freq.     316.80  E(vib)   ...       0.25 
freq.     318.86  E(vib)   ...       0.25 
freq.     321.79  E(vib)   ...       0.25 
freq.     323.99  E(vib)   ...       0.25 
freq.     338.90  E(vib)   ...       0.23 
freq.     339.66  E(vib)   ...       0.23 
freq.     349.10  E(vib)   ...       0.23 
freq.     350.78  E(vib)   ...       0.23 
freq.     358.01  E(vib)   ...       0.22 
freq.     358.49  E(vib)   ...       0.22 
freq.     368.33  E(vib)   ...       0.21 
freq.     381.09  E(vib)   ...       0.21 
freq.     383.25  E(vib)   ...       0.20 
freq.     384.29  E(vib)   ...       0.20 
freq.     393.66  E(vib)   ...       0.20 
freq.     398.09  E(vib)   ...       0.20 
freq.     399.64  E(vib)   ...       0.19 
freq.     401.80  E(vib)   ...       0.19 
freq.     410.99  E(vib)   ...       0.19 
freq.     414.81  E(vib)   ...       0.19 
freq.     418.76  E(vib)   ...       0.18 
freq.     419.93  E(vib)   ...       0.18 
freq.     421.31  E(vib)   ...       0.18 
freq.     424.94  E(vib)   ...       0.18 
freq.     434.67  E(vib)   ...       0.17 
freq.     469.04  E(vib)   ...       0.16 
freq.     473.81  E(vib)   ...       0.15 
freq.     478.73  E(vib)   ...       0.15 
freq.     489.48  E(vib)   ...       0.15 
freq.     508.70  E(vib)   ...       0.14 
freq.     527.28  E(vib)   ...       0.13 
freq.     540.10  E(vib)   ...       0.12 
freq.     568.60  E(vib)   ...       0.11 
freq.     618.50  E(vib)   ...       0.09 
freq.     660.68  E(vib)   ...       0.08 
freq.     662.27  E(vib)   ...       0.08 
freq.     670.28  E(vib)   ...       0.08 
freq.     673.63  E(vib)   ...       0.08 
freq.     677.36  E(vib)   ...       0.08 
freq.     680.35  E(vib)   ...       0.08 
freq.     686.16  E(vib)   ...       0.07 
freq.     690.06  E(vib)   ...       0.07 
freq.     698.32  E(vib)   ...       0.07 
freq.     708.98  E(vib)   ...       0.07 
freq.     717.57  E(vib)   ...       0.07 
freq.     732.49  E(vib)   ...       0.06 
freq.     733.52  E(vib)   ...       0.06 
freq.     734.29  E(vib)   ...       0.06 
freq.     734.77  E(vib)   ...       0.06 
freq.     735.13  E(vib)   ...       0.06 
freq.     737.74  E(vib)   ...       0.06 
freq.     738.29  E(vib)   ...       0.06 
freq.     739.40  E(vib)   ...       0.06 
freq.     739.50  E(vib)   ...       0.06 
freq.     739.92  E(vib)   ...       0.06 
freq.     740.11  E(vib)   ...       0.06 
freq.     741.01  E(vib)   ...       0.06 
freq.     742.29  E(vib)   ...       0.06 
freq.     744.66  E(vib)   ...       0.06 
freq.     784.59  E(vib)   ...       0.05 
freq.     995.62  E(vib)   ...       0.02 
freq.     997.47  E(vib)   ...       0.02 
freq.    1000.20  E(vib)   ...       0.02 
freq.    1000.28  E(vib)   ...       0.02 
freq.    1001.58  E(vib)   ...       0.02 
freq.    1001.68  E(vib)   ...       0.02 
freq.    1002.29  E(vib)   ...       0.02 
freq.    1003.58  E(vib)   ...       0.02 
freq.    1004.18  E(vib)   ...       0.02 
freq.    1004.53  E(vib)   ...       0.02 
freq.    1004.97  E(vib)   ...       0.02 
freq.    1005.35  E(vib)   ...       0.02 
freq.    1040.86  E(vib)   ...       0.02 
freq.    1103.15  E(vib)   ...       0.02 
freq.    1349.92  E(vib)   ...       0.01 
freq.    1351.54  E(vib)   ...       0.01 
freq.    1351.99  E(vib)   ...       0.01 
freq.    1352.21  E(vib)   ...       0.01 
freq.    1353.29  E(vib)   ...       0.01 
freq.    1353.81  E(vib)   ...       0.01 
freq.    1354.39  E(vib)   ...       0.01 
freq.    1354.59  E(vib)   ...       0.01 
freq.    1355.16  E(vib)   ...       0.01 
freq.    1355.66  E(vib)   ...       0.01 
freq.    1356.43  E(vib)   ...       0.01 
freq.    1358.93  E(vib)   ...       0.01 
freq.    1360.26  E(vib)   ...       0.01 
freq.    1360.85  E(vib)   ...       0.01 
freq.    1361.42  E(vib)   ...       0.01 
freq.    1361.72  E(vib)   ...       0.01 
freq.    1365.60  E(vib)   ...       0.01 
freq.    1366.19  E(vib)   ...       0.01 
freq.    1367.13  E(vib)   ...       0.01 
freq.    1368.40  E(vib)   ...       0.01 
freq.    1370.48  E(vib)   ...       0.01 
freq.    1373.01  E(vib)   ...       0.01 
freq.    1374.77  E(vib)   ...       0.01 
freq.    1382.60  E(vib)   ...       0.01 
freq.    1540.24  E(vib)   ...       0.00 
freq.    1548.79  E(vib)   ...       0.00 
freq.    1564.25  E(vib)   ...       0.00 
freq.    1565.87  E(vib)   ...       0.00 
freq.    1569.16  E(vib)   ...       0.00 
freq.    1577.02  E(vib)   ...       0.00 
freq.    1580.64  E(vib)   ...       0.00 
freq.    1627.46  E(vib)   ...       0.00 
freq.    1633.10  E(vib)   ...       0.00 
freq.    1635.82  E(vib)   ...       0.00 
freq.    1637.71  E(vib)   ...       0.00 
freq.    1638.35  E(vib)   ...       0.00 
freq.    1645.49  E(vib)   ...       0.00 
freq.    1736.87  E(vib)   ...       0.00 
freq.    1859.37  E(vib)   ...       0.00 
freq.    1864.23  E(vib)   ...       0.00 
freq.    1867.79  E(vib)   ...       0.00 
freq.    1880.82  E(vib)   ...       0.00 
freq.    1901.48  E(vib)   ...       0.00 
freq.    1903.23  E(vib)   ...       0.00 
freq.    1907.09  E(vib)   ...       0.00 
freq.    1913.22  E(vib)   ...       0.00 
freq.    1915.60  E(vib)   ...       0.00 
freq.    1973.63  E(vib)   ...       0.00 
freq.    2869.82  E(vib)   ...       0.00 
freq.    2882.62  E(vib)   ...       0.00 
freq.    2883.62  E(vib)   ...       0.00 
freq.    2886.04  E(vib)   ...       0.00 
freq.    2887.47  E(vib)   ...       0.00 
freq.    2901.78  E(vib)   ...       0.00 
freq.    2908.61  E(vib)   ...       0.00 
freq.    2909.14  E(vib)   ...       0.00 
freq.    2909.88  E(vib)   ...       0.00 
freq.    2909.97  E(vib)   ...       0.00 
freq.    2910.88  E(vib)   ...       0.00 
freq.    2911.93  E(vib)   ...       0.00 

------------
INNER ENERGY
------------

The inner energy is: U= E(el) + E(ZPE) + E(vib) + E(rot) + E(trans)
    E(el)   - is the total energy from the electronic structure calculation
              = E(kin-el) + E(nuc-el) + E(el-el) + E(nuc-nuc)
    E(ZPE)  - the the zero temperature vibrational energy from the frequency calculation
    E(vib)  - the the finite temperature correction to E(ZPE) due to population
              of excited vibrational states
    E(rot)  - is the rotational thermal energy
    E(trans)- is the translational thermal energy

Summary of contributions to the inner energy U:
Electronic energy                ...  -3976.49967864 Eh
Zero point energy                ...      0.38980242 Eh     244.60 kcal/mol
Thermal vibrational correction   ...      0.06442037 Eh      40.42 kcal/mol
Thermal rotational correction    ...      0.00141627 Eh       0.89 kcal/mol
Thermal translational correction ...      0.00141627 Eh       0.89 kcal/mol
-----------------------------------------------------------------------
Total thermal energy                  -3976.04262330 Eh


Summary of corrections to the electronic energy:
(perhaps to be used in another calculation)
Total thermal correction                  0.06725292 Eh      42.20 kcal/mol
Non-thermal (ZPE) correction              0.38980242 Eh     244.60 kcal/mol
-----------------------------------------------------------------------
Total correction                          0.45705534 Eh     286.81 kcal/mol


--------
ENTHALPY
--------

The enthalpy is H = U + kB*T
                kB is Boltzmann's constant
Total thermal energy              ...  -3976.04262330 Eh 
Thermal Enthalpy correction       ...      0.00094421 Eh       0.59 kcal/mol
-----------------------------------------------------------------------
Total Enthalpy                    ...  -3976.04167909 Eh


Note: Only C1 symmetry has been detected, increase convergence thresholds 
      if your molecule has a higher symmetry. Symmetry factor of 1.0 is   
      used for the rotational entropy correction. 
 

Note: Rotational entropy computed according to Herzberg 
Infrared and Raman Spectra, Chapter V,1, Van Nostrand Reinhold, 1945 
Point Group:  C1, Symmetry Number:   1  
Rotational constants in cm-1:     0.001724     0.001111     0.001076 

Vibrational entropy computed according to the QRRHO of S. Grimme
Chem.Eur.J. 2012 18 9955 using a reference frequency of 100.0 cm-1


-------
ENTROPY
-------

The entropy contributions are T*S = T*(S(el)+S(vib)+S(rot)+S(trans))
     S(el)   - electronic entropy
     S(vib)  - vibrational entropy
     S(rot)  - rotational entropy
     S(trans)- translational entropy
The entropies will be listed as multiplied by the temperature to get
units of energy

Electronic entropy                ...      0.00000000 Eh      0.00 kcal/mol
Vibrational entropy               ...      0.11695574 Eh     73.39 kcal/mol
Rotational entropy                ...      0.01895284 Eh     11.89 kcal/mol
Translational entropy             ...      0.02250776 Eh     14.12 kcal/mol
-----------------------------------------------------------------------
Final entropy term                ...      0.15841634 Eh     99.41 kcal/mol

In case the symmetry of your molecule has not been determined correctly
or in case you have a reason to use a different symmetry number we print 
out the resulting rotational entropy values for sn=1,12:

 non-linear molecules -----------------------------------
|  sn= 1 | S(rot)=       0.01895284 Eh     11.89 kcal/mol|
|  sn= 2 | S(rot)=       0.01829838 Eh     11.48 kcal/mol|
|  sn= 3 | S(rot)=       0.01791555 Eh     11.24 kcal/mol|
|  sn= 4 | S(rot)=       0.01764392 Eh     11.07 kcal/mol|
|  sn= 5 | S(rot)=       0.01743324 Eh     10.94 kcal/mol|
|  sn= 6 | S(rot)=       0.01726109 Eh     10.83 kcal/mol|
|  sn= 7 | S(rot)=       0.01711555 Eh     10.74 kcal/mol|
|  sn= 8 | S(rot)=       0.01698947 Eh     10.66 kcal/mol|
|  sn= 9 | S(rot)=       0.01687826 Eh     10.59 kcal/mol|
|  sn=10 | S(rot)=       0.01677878 Eh     10.53 kcal/mol|
|  sn=11 | S(rot)=       0.01668879 Eh     10.47 kcal/mol|
|  sn=12 | S(rot)=       0.01660663 Eh     10.42 kcal/mol|
 linear molecules ---------------------------------------
|  Dinfh | S(rot)=       0.01177874 Eh      7.39 kcal/mol|
|  Cinfv | S(rot)=       0.01243319 Eh      7.80 kcal/mol|
 --------------------------------------------------------


-------------------
GIBBS FREE ENERGY
-------------------

The Gibbs free energy is G = H - T*S

Total enthalpy                    ...  -3976.04167909 Eh 
Total entropy correction          ...     -0.15841634 Eh    -99.41 kcal/mol
-----------------------------------------------------------------------
Final Gibbs free energy         ...  -3976.20009543 Eh

For completeness - the Gibbs free energy minus the electronic energy
G-E(el)                           ...      0.29958320 Eh    187.99 kcal/mol


Maximum memory used throughout the entire PROP-calculation: 150.1 MB

--------------------------------
SUGGESTED CITATIONS FOR THIS RUN
--------------------------------

Below you find a list of papers that are relevant to this ORCA run
We neither can nor want to force you to cite these papers, but we appreciate if you do
You receive ORCA, which is the product of decades of hard work by many enthusiastic individuals, for free
The only thing we kindly ask in return is that you cite our papers,
We deeply appreciate it, if you show your appreciation for ORCA by not just citing the generic ORCA reference.

Please note that relegating all ORCA citations to the supporting information does *not* help us.
SI sections are not indexed - citations you put there will not count into any citation statistics
But we need these citations in order to attract the funding resources that allow us to do what we are doing

Therefore, if you are a happy ORCA user, please consider citing a few of the papers listed below in the main body of your paper

In addition to the list printed below, the program has created the file run.bibtex that contains the list in bibtex format
You can import this file easily into all common literature databanks and citation aid programs


List of essential papers. We consider these as the minimum necessary citations

  1. Neese, F.
     Software update: the ORCA program system, version 6.0
     WIRES Comput. Molec. Sci. 2025 15(1), e70019
     doi.org/10.1002/wcms.7019

List of papers to cite with high priority. The work reported in these papers was absolutely
necessary for this run to complete.
Our perspective: the developers of density functionals and basis sets usually get cited in chemistry papers
Good! But without the algorithms to do something with them, the functionals or basis sets would not do anything.
Hence, in our opinion, the algorithm design and method developments papers are equally worthy of getting cited

  1. Neese, F.
     An improvement of the resolution of the identity approximation for the formation of the Coulomb matrix
     J. Comp. Chem. 2003 24(14), 1740-1747
     doi.org/10.1002/jcc.10318
  2. Grimme, S.; Antony, J.; Ehrlich, S.; Krieg, H.
     A consistent and accurate ab initio parametrization of density functional dispersion correction (DFT-D) for the 94 elements H-Pu
     J. Chem. Phys. 2010 132 , 154104
     doi.org/10.1063/1.3382344
  3. Grimme, S.; Ehrlich, S.; Goerigk, L.
     Effect of the damping function in dispersion corrected density functional theory
     J. Comput. Chem. 2011 32(7), 1456-1465
     doi.org/10.1002/jcc.21759
  4. Bykov, D.; Petrenko, T.; Izsak, R.; Kossmann, S.; Becker, U.; Valeev, E.; Neese, F.
     Efficient implementation of the analytic second derivatives of Hartree-Fock and hybrid DFT energies: a detailed analysis of different approximations
     Molec. Phys. 2015 113 , 1961-1977
     doi.org/10.1080/00268976.2015.1025114
  5. Helmich-Paris, B.
     A trust-region augmented Hessian implementation for restricted and unrestricted Hartree–Fock and Kohn–Sham methods
     J. Chem. Phys. 2021 154 , 164104
     doi.org/10.1063/5.0040798
  6. Neese, F.
     The SHARK Integral Generation and Digestion System
     J. Comp. Chem. 2022 44(3), 381
     doi.org/10.1002/jcc.26942

List of suggested additional citations. These are papers that are important in the 'surrounding' of 
of this run, or papers that preceded the highly important papers. If you like your results we are grateful for a citation.

  1. Neese, F.
     The ORCA program system
     WIRES Comput. Molec. Sci. 2012 2(1), 73-78
     doi.org/10.1002/wcms.81
  2. Neese, F.
     Software update: the ORCA program system, version 4.0
     WIRES Comput. Molec. Sci. 2018 8(1), 1-6
     doi.org/10.1002/wcms.1327
  3. Neese, F.; Wennmohs, F.; Becker, U.; Riplinger, C.
     The ORCA quantum chemistry program package
     J. Chem. Phys. 2020 152(22), 224108
     doi.org/10.1063/5.0004608
  4. Neese, F.
     Software update: The ORCA program system—Version 5.0
     WIRES Comput. Molec. Sci. 2022 12(1), e1606
     doi.org/10.1002/wcms.1606

List of optional additional citations

  1. Neese, F.
     Approximate second-order SCF convergence for spin unrestricted wavefunctions
     Chem. Phys. Lett. 2000 325(1-3), 93-98
     doi.org/10.1016/s0009-2614(00)00662-x

Timings for individual modules:

Sum of individual times          ...     8590.563 sec (= 143.176 min)
Startup calculation              ...      377.078 sec (=   6.285 min)   4.4 %
SCF iterations                   ...     2600.573 sec (=  43.343 min)  30.3 %
Property integrals               ...     1691.731 sec (=  28.196 min)  19.7 %
SCF Response                     ...     1451.829 sec (=  24.197 min)  16.9 %
Property calculations            ...     1476.921 sec (=  24.615 min)  17.2 %
SCF Gradient evaluation          ...      960.377 sec (=  16.006 min)  11.2 %
Geometry relaxation              ...       32.054 sec (=   0.534 min)   0.4 %
                             ****ORCA TERMINATED NORMALLY****
TOTAL RUN TIME: 0 days 2 hours 23 minutes 44 seconds 721 msec
