
                                 *****************
                                 * O   R   C   A *
                                 *****************

                                            #,                                       
                                            ###                                      
                                            ####                                     
                                            #####                                    
                                            ######                                   
                                           ########,                                 
                                     ,,################,,,,,                         
                               ,,#################################,,                 
                          ,,##########################################,,             
                       ,#########################################, ''#####,          
                    ,#############################################,,   '####,        
                  ,##################################################,,,,####,       
                ,###########''''           ''''###############################       
              ,#####''   ,,,,##########,,,,          '''####'''          '####       
            ,##' ,,,,###########################,,,                        '##       
           ' ,,###''''                  '''############,,,                           
         ,,##''                                '''############,,,,        ,,,,,,###''
      ,#''                                            '''#######################'''  
     '                                                          ''''####''''         
             ,#######,   #######,   ,#######,      ##                                
            ,#'     '#,  ##    ##  ,#'     '#,    #''#        ,####,    ,#,          
            ##       ##  ##   ,#'  ##            #'  '#       #'       ,# #          
            ##       ##  #######   ##           ,######,      #####,      #          
            '#,     ,#'  ##    ##  '#,     ,#' ,#      #,     #,   #      #          
             '#######'   ##     ##  '#######'  #'      '#     '####' #    #          



                #########################################################
                #                        -***-                          #
                #          Department of theory and spectroscopy        #
                #                                                       #
                #                      Frank Neese                      #
                #                                                       #
                #     Directorship, Architecture, Infrastructure        #
                #                    SHARK, DRIVERS                     #
                #        Core code/Algorithms in most modules           #
                #                                                       #
                #        Max Planck Institute fuer Kohlenforschung      #
                #                Kaiser Wilhelm Platz 1                 #
                #                 D-45470 Muelheim/Ruhr                 #
                #                      Germany                          #
                #                                                       #
                #                  All rights reserved                  #
                #                        -***-                          #
                #########################################################


                         Program Version 6.1.0  -  RELEASE   -
                                (GIT: $679e74b$)
                          ($2025-06-10 18:02:51 +0200$)


 With contributions from (in alphabetic order):
[Max-Planck-Institut fuer Kohlenforschung]                               
  Daniel Aravena         : Magnetic Suceptibility                        
  Michael Atanasov       : Ab Initio Ligand Field Theory (pilot matlab implementation)
  Alexander A. Auer      : GIAO ZORA, VPT2 properties, NMR spectrum      
  Ute Becker             : All parallelization in ORCA, NUMFREQ, NUMCALC 
  Giovanni Bistoni       : ED, misc. LED, open-shell LED, HFLD           
  Dmytro Bykov           : pre 5.0 version of the SCF Hessian            
  Marcos Casanova-Páez   : Triplet and SCS-CIS(D). UHF-(DLPNO)-IP/EA/STEOM-CCSD. UHF-CVS-IP/STEOM-CCSD   
  Vijay G. Chilkuri      : MRCI spin determinant printing, contributions to CSF-ICE 
  Pauline Colinet        : FMM embedding                                 
  Dipayan Datta          : RHF DLPNO-CCSD density                        
  Achintya Kumar Dutta   : EOM-CC, STEOM-CC                              
  Nicolas Foglia         : Exact transition moments, OPA infrastructure, MCD improvements    
  Dmitry Ganyushin       : Spin-Orbit,Spin-Spin,Magnetic field MRCI      
  Miquel Garcia-Rates    : C-PCM and meta-GGA Hessian, CCSD/C-PCM, Gaussian charge scheme 
  Tiago L. C. Gouveia    : GS-ROHF, GS-ROCIS                             
  Yang Guo               : DLPNO-NEVPT2, F12-NEVPT2, CIM, IAO-localization        
  Andreas Hansen         : Spin unrestricted coupled pair/coupled cluster methods 
  Ingolf Harden          : AUTO-CI MPn and infrastructure                
  Benjamin Helmich-Paris : MC-RPA, TRAH-(SCF,CASSCF), AVAS, COSX integrals, SCF dyn. polar., MC-PDFT, srDFT 
  Lee Huntington         : MR-EOM, pCC                                   
  Robert Izsak           : Overlap fitted RIJCOSX, COSX-SCS-MP3, EOM     
  Riya Kayal             : Wick's Theorem for AUTO-CI, AUTO-CI UHF-CCSDT 
  Emily Kempfer          : AUTO-CI RHF CISDT and CCSDT, approximate NEVPT4
  Christian Kollmar      : KDIIS, OOCD, Brueckner-CCSD(T), CCSD density, CASPT2, CASPT2-K, improved NEVPT2 
  Axel Koslowski         : Symmetry handling                             
  Simone Kossmann        : meta-GGA functionals, TD-DFT gradient, OOMP2, (MP2 Hessian; deprecated post 5.0) 
  Lucas Lang             : DCDCAS, Hyperfine gauge corrections, ICE-SOC+SSC
  Marvin Lechner         : AUTO-CI (C++ implementation), FIC-MRCC        
  Spencer Leger          : CASSCF response                               
  Dagmar Lenk            : GEPOL surface, SMD, ORCA-2-JSON               
  Dimitrios Liakos       : Extrapolation schemes; Compound Job, Property file
  Dimitrios Manganas     : Further ROCIS development; embedding schemes. LFT, Crystal Embedding 
  Dimitrios Pantazis     : SARC Basis sets                               
  Anastasios Papadopoulos: AUTO-CI, single reference methods and gradients 
  Taras Petrenko         : pre 6.0 DFT Hessian and TD-DFT gradient,  ECA, NRVS 
  Petra Pikulova         : Analytic Raman intensities                    
  Peter Pinski           : DLPNO-MP2, DLPNO-MP2 Gradient                 
  Shashank Vittal Rao    : ES-AILFT, MagRelax                            
  Christoph Reimann      : Effective Core Potentials                     
  Marius Retegan         : Local ZFS, SOC                                
  Christoph Riplinger    : Optimizer, TS searches, QM/MM, DLPNO-CCSD(T), (RO)-DLPNO pert. Triples 
  Michael Roemelt        : Original ROCIS implementation, recursive CI coupling coefficients
  Masaaki Saitow         : Open-shell DLPNO-CCSD energy and density      
  Barbara Sandhoefer     : DKH picture change effects                    
  Yorick L. A. Schmerwitz: GMF and freeze-and-release deltaSCF, NEB S-IDPP initial path                    
  Kantharuban Sivalingam : CASSCF convergence/infrastructure, NEVPT2, NEVPT3, NEVPT4(SD), FIC-MRCI and CEPA variants
  Bernardo de Souza      : ESD, SOC TD-DFT                               
  Georgi L. Stoychev     : AutoAux, RI-MP2 NMR, DLPNO-MP2 response, X2C  
  Van Anh Tran           : RI-MP2 g-tensors                              
  Willem Van den Heuvel  : Paramagnetic NMR                              
  Zikuan Wang            : NOTCH, Electric field optimization            
  Frank Wennmohs         : Technical directorship and infrastructure     
  Hang Xu                : AUTO-CI-Response properties                   
                                                                         
[FACCTs GmbH]                                                            
  Markus Bursch, Nicolas Foglia, Miquel Garcia-Rates, Ingolf Harden, Hagen Neugebauer, Anastasios Papadopoulos, 
  Christoph Riplinger, Bernardo de Souza, Georgi L. Stoychev                                                    
                                                                 
  APM, various basis sets, CI-OPT, improved COSX, DLPNO-Multilevel,           
  DOCKER, DRACO, updates on ESD, Fragmentator, GOAT, IRC, LR-CPCM, L-BFGS, MBIS, meta-GGA TD-DFT gradient, ML-optimized integration grids, 
  MM, NACMEs, nearIR, NEB, NEB-TS, NL-DFT gradient (VV10), 2- and 3-layer-ONIOM, interface openCOSMO-RS, QMMM,   
  Crystal-QMMM, RESP, rigid body optimization, SF, symmetry and pop. for TD-DFT, various functionals, SOLVATOR                                   
                                                                         
[Other institutions]                                                     
  V. Asgeirsson          : NEB                                           
  Christoph Bannwarth    : sTDA-DFT, sTD-DFT, PBEh-3c, B97-3c, D3        
  Giovanni Bistoni       : ETS/NOCV, ADLD/ADEX, COVALED                  
  Martin Brehm           : Molecular dynamics                            
  Ronald Cardenas        : ETS/NOCV                                      
  Martina Colucci        : COVALED                                       
  Sebastian Ehlert       : rSCAN, r2SCAN, r2SCAN-3c, D4, dhf basis sets  
  Marvin Friede          : D4 for Fr, Ra, Ac-Lr                          
  Lars Goerigk           : TD-DFT with DH, B97 family of functionals     
  Stefan Grimme          : VdW corrections, initial TS optimization, DFT functionals, gCP, sTDA/sTD-DF 
  Waldemar Hujo          : DFT-NL                                        
  H. Jonsson             : NEB                                           
  Holger Kruse           : gCP                                           
  Marcel Mueller         : wB97X-3c, vDZP basis set                      
  Hagen Neugebauer       : wr2SCAN, Native XTB                           
  Gianluca Regni         : ADLD/ADEX                                     
  Tobias Risthaus        : pre 6.0 range-separated hybrid DFT and stability analysis
  Lukas Wittmann         : regularized MP2, r2SCAN double-hybrids, wr2SCAN        
                                                                         
We gratefully acknowledge several colleagues who have allowed us to      
interface, adapt or use parts of their codes:                            
  Ed Valeev, F. Pavosevic, A. Kumar             : LibInt (2-el integral package), F12 methods 
  Garnet Chan, S. Sharma, J. Yang, R. Olivares  : DMRG                   
  Ulf Ekstrom                                   : XCFun DFT Library      
  Mihaly Kallay                                 : mrcc  (arbitrary order and MRCC methods)
  Frank Weinhold                                : gennbo (NPA and NBO analysis)           
  Simon Mueller                                 : openCOSMO-RS                            
  Christopher J. Cramer and Donald G. Truhlar   : smd solvation model                     
  S Lehtola, MJT Oliveira, MAL Marques          : LibXC Library                           
  Liviu Ungur et al                             : ANISO software                          


 Your calculation uses the libint2 library for the computation of 2-el integrals
 For citations please refer to: http://libint.valeyev.net

 Your ORCA version has been built with support for libXC version: 7.0.0
 For citations please refer to: https://libxc.gitlab.io

 This ORCA versions uses:
   CBLAS   interface :  Fast vector & matrix operations
   LAPACKE interface :  Fast linear algebra routines
   SCALAPACK package :  Parallel linear algebra routines
   Shared memory     :  Shared parallel matrices
   BLAS/LAPACK       :  OpenBLAS 0.3.29  USE64BITINT DYNAMIC_ARCH NO_AFFINITY Prescott SINGLE_THREADED
        Core in use  :  Prescott
   Copyright (c) 2011-2014, The OpenBLAS Project


  ***********************************
  * Starting time: Wed Aug 13 10:27:48 2025
  * Host name:     cuda5
  * Process ID:    219180
  * Working dir.:  /local/scratch/mehlhorn/61890
  ***********************************



***************************************
The coordinates will be read from file: start.xyz
***************************************


Your calculation utilizes the geometrical counterpoise correction gCP
Please cite in your paper:
H.Kruse, S. Grimme J.Chem.Phys., 136, (2012), 154101 
   

Your calculation utilizes the atom-pairwise dispersion correction
with the Becke-Johnson damping scheme (D3BJ)


Warning: RI is on but no J-basis has been assigned. Assigning Def2/J (nothing to worry about!)
================================================================================

cite the ECPs for Zr [Def2-ECP] as follows:
Ce-Yb(ecp-28): M. Dolg, H. Stoll, H.Preuss, J. Chem. Phys., 1989, 90, 1730-1734.
Y-Cd(ecp-28), Hf-Hg(ecp-46): D. Andrae,U. Haeussermann, M. Dolg, H. Stoll, H. Preuss, Theor. Chim. Acta, 1990, 77, 123-141.
In-Sb(ecp-28), Tl-Bi(ecp-46): B. Metz, H. Stoll, M. Dolg, J. Chem. Phys., 2000, 113, 2563-2569.
Te-Xe(ecp-28), Po-Rn(ecp-46): K. A. Peterson, D. Figgen, E. Goll, H. Stoll, M. Dolg, J. Chem. Phys., 2003, 119, 11113-11123.
Rb(ecp-28), Cs(ecp-46): T. Leininger, A. Nicklass, W. Kuechle, H. Stoll, M. Dolg, A. Bergner, Chem. Phys. Lett., 1996, 255, 274-280.
Sr(ecp-28), Ba(ecp-46): M. Kaupp, P. V. Schleyer, H. Stoll and H. Preuss, J. Chem. Phys., 1991, 94, 1360-1366.
La(ecp-46): M. Dolg, H. Stoll, A. Savin, H. Preuss, Theor. Chim. Acta, 1989, 75, 173-194.
Lu(ecp-28): X. Cao, M. Dolg, J. Chem. Phys., 2001, 115, 7348-7355.

ECP parameters for Zr [Def2-ECP] have been obtained from:
TURBOMOLE (7.0.2)

----- Orbital basis set information -----
Your calculation utilizes the basis: def2-SV(P)
   F. Weigend and R. Ahlrichs, Phys. Chem. Chem. Phys. 7, 3297 (2005).

----- AuxJ basis set information -----
Your calculation utilizes the auxiliary basis: def2/J
   H-Rn: F. Weigend, Phys. Chem. Chem. Phys. 8, 1057 (2006).
   Fr-Lr: K. Eichkorn, F. Weigend, O. Treutler, R. Ahlrichs; Theor. Chem. Acc. 97, 119 (1997).

================================================================================
                                        WARNINGS
                       Please study these warnings very carefully!
================================================================================


WARNING: Gradients are needed
  ===> : At least TightSCF should be used for SCF convergence

WARNING: Geometry Optimization
  ===> : Switching off AutoStart
         For restart on a previous wavefunction, please use MOREAD

================================================================================
                                       INPUT FILE
================================================================================
NAME = run.inp
|  1> # Geometry optimization for (AlH3)n cluster
|  2> 
|  3> %pal nprocs 24  end
|  4> 
|  5> %geom MaxIter 500 end
|  6> 
|  7> 
|  8> ! PBE def2-SV(P)
|  9> ! RKS	# closed shell for AlH3
| 10> ! D3    #  dispersion correction
| 11> ! gCP(DFT/SV(P))
| 12> ! Freq 	# Frequency analysis to check the stabiltity of the structures
| 13> 
| 14> ! NoPop # population analysis not necessary	
| 15> 
| 16> ! DEFGRID2
| 17> ! NormalSCF
| 18> ! SloppyOpt
| 19> 
| 20> ! SmallPrint
| 21> 
| 22> 
| 23> * xyzFile 0 1 start.xyz # only maingroup elements H and Al so there should be no net spin
| 24> 
| 25>                          ****END OF INPUT****
================================================================================

                       *****************************
                       * Geometry Optimization Run *
                       *****************************

Geometry optimization settings:
Update method            Update   .... BFGS
Choice of coordinates    CoordSys .... (2022) Redundant Internals
Initial Hessian          InHess   .... Almloef's Model
Max. no of cycles        MaxIter  .... 500

Convergence Tolerances:
Energy Change            TolE     ....  8.0000e-05 Eh
Max. Gradient            TolMAXG  ....  5.0000e-03 Eh/bohr
RMS Gradient             TolRMSG  ....  1.0000e-03 Eh/bohr
Max. Displacement        TolMAXD  ....  3.0000e-02 bohr
RMS Displacement         TolRMSD  ....  2.0000e-02 bohr
Strict Convergence                .... False

------------------------------------------------------------------------------
                        ORCA OPTIMIZATION COORDINATE SETUP
------------------------------------------------------------------------------

The optimization will be done in redundant internal coordinates (2022)
Making redundant internal coordinates   ...  (2022 redundants) done
Evaluating the initial hessian          ...  (Almloef) done
Evaluating the coordinates              ...  done
Calculating the B-matrix                .... done
Calculating the G-matrix                .... done
The number of degrees of freedom        .... 1036

    -----------------------------------------------------------------
                    Redundant Internal Coordinates


    -----------------------------------------------------------------
         Definition                    Initial Value    Approx d2E/dq
    -----------------------------------------------------------------
      1. B(Zr  2,Zr  1)                  3.4204         0.036867   
      2. B(Zr  3,Zr  0)                  3.4204         0.036864   
      3. B(Zr  4,Zr  1)                  3.4237         0.036424   
      4. B(Zr  4,Zr  3)                  3.4210         0.036785   
      5. B(Zr  5,Zr  2)                  3.4153         0.037563   
      6. B(Zr  5,Zr  0)                  3.4215         0.036714   
      7. B(O   6,Zr  5)                  2.1329         0.369664   
      8. B(O   6,Zr  0)                  2.0980         0.420239   
      9. B(O   6,Zr  3)                  2.1429         0.356235   
     10. B(O   7,Zr  4)                  2.1333         0.369062   
     11. B(O   7,Zr  2)                  2.1399         0.360176   
     12. B(O   7,Zr  1)                  2.0991         0.418426   
     13. B(O   8,Zr  5)                  2.1475         0.350280   
     14. B(O   8,Zr  1)                  2.1301         0.373459   
     15. B(O   8,Zr  2)                  2.0976         0.420844   
     16. B(O   9,Zr  4)                  2.1442         0.354551   
     17. B(O   9,Zr  0)                  2.1273         0.377258   
     18. B(O   9,Zr  3)                  2.0997         0.417509   
     19. B(O  10,Zr  4)                  2.0966         0.422375   
     20. B(O  10,Zr  3)                  2.1288         0.375271   
     21. B(O  10,Zr  1)                  2.1396         0.360646   
     22. B(O  11,Zr  5)                  2.0946         0.425428   
     23. B(O  11,Zr  2)                  2.1252         0.380221   
     24. B(O  11,Zr  0)                  2.1419         0.357586   
     25. B(O  12,Zr  0)                  1.9691         0.674546   
     26. B(O  13,Zr  0)                  1.9777         0.653759   
     27. B(O  14,Zr  0)                  2.0679         0.469355   
     28. B(O  15,Zr  0)                  2.0380         0.523829   
     29. B(O  16,Zr  1)                  2.0390         0.521844   
     30. B(O  17,Zr  1)                  2.0721         0.462054   
     31. B(O  18,Zr  1)                  1.9735         0.663850   
     32. B(O  19,Zr  1)                  1.9680         0.677393   
     33. B(O  20,Zr  2)                  1.9775         0.654081   
     34. B(O  21,Zr  2)                  2.0423         0.515640   
     35. B(O  22,Zr  2)                  1.9697         0.673205   
     36. B(O  23,Zr  2)                  2.0650         0.474342   
     37. B(O  24,Zr  3)                  2.0712         0.463698   
     38. B(O  25,Zr  3)                  1.9699         0.672786   
     39. B(O  26,Zr  3)                  2.0379         0.523953   
     40. B(O  27,Zr  3)                  1.9770         0.655447   
     41. B(O  28,Zr  4)                  1.9690         0.674879   
     42. B(O  29,Zr  4)                  2.0739         0.459099   
     43. B(O  30,Zr  4)                  1.9752         0.659789   
     44. B(O  31,Zr  4)                  2.0381         0.523691   
     45. B(O  32,Zr  5)                  2.0418         0.516587   
     46. B(O  33,Zr  5)                  1.9763         0.657137   
     47. B(O  34,Zr  5)                  2.0665         0.471647   
     48. B(O  35,Zr  5)                  1.9700         0.672432   
     49. B(C  36,O  33)                  1.2981         0.784239   
     50. B(C  36,O  12)                  1.2980         0.784600   
     51. B(C  37,O  25)                  1.2981         0.784223   
     52. B(C  37,O  13)                  1.2983         0.783666   
     53. B(C  38,O  21)                  1.2969         0.787746   
     54. B(C  38,O  14)                  1.2991         0.781449   
     55. B(C  39,O  29)                  1.2990         0.781681   
     56. B(C  39,O  15)                  1.2969         0.787824   
     57. B(C  40,O  34)                  1.2985         0.783090   
     58. B(C  40,O  16)                  1.2965         0.789019   
     59. B(C  41,O  26)                  1.2970         0.787621   
     60. B(C  41,O  17)                  1.2990         0.781681   
     61. B(C  42,O  22)                  1.2981         0.784431   
     62. B(C  42,O  18)                  1.2979         0.784791   
     63. B(C  43,O  19)                  1.2980         0.784716   
     64. B(C  43,O  30)                  1.2981         0.784341   
     65. B(C  44,O  35)                  1.2980         0.784638   
     66. B(C  44,O  20)                  1.2980         0.784552   
     67. B(C  45,O  31)                  1.2971         0.787081   
     68. B(C  45,O  23)                  1.2991         0.781504   
     69. B(C  46,O  24)                  1.2995         0.780340   
     70. B(C  46,O  32)                  1.2973         0.786679   
     71. B(C  47,O  28)                  1.2980         0.784646   
     72. B(C  47,O  27)                  1.2981         0.784194   
     73. B(H  48,C  41)                  1.0867         0.364535   
     74. B(H  49,C  42)                  1.0896         0.360588   
     75. B(H  50,C  38)                  1.0865         0.364779   
     76. B(H  51,C  37)                  1.0899         0.360235   
     77. B(H  52,C  43)                  1.0900         0.360139   
     78. B(H  53,C  47)                  1.0899         0.360237   
     79. B(H  54,C  39)                  1.0867         0.364488   
     80. B(H  55,C  45)                  1.0868         0.364410   
     81. B(H  56,C  40)                  1.0865         0.364749   
     82. B(H  57,C  46)                  1.0869         0.364201   
     83. B(H  58,C  36)                  1.0898         0.360329   
     84. B(H  59,C  44)                  1.0897         0.360458   
     85. B(Al 61,Al 60)                  3.1635         0.045441   
     86. B(Al 62,Al 61)                  3.2294         0.035667   
     87. B(Al 62,Al 60)                  2.6976         0.251637   
     88. B(Al 63,Al 62)                  3.2299         0.035602   
     89. B(Al 63,Al 60)                  3.1546         0.046946   
     90. B(Al 64,Al 62)                  3.2853         0.029041   
     91. B(Al 65,Al 64)                  3.2773         0.029907   
     92. B(Al 65,Al 61)                  3.2489         0.033195   
     93. B(Al 66,Al 64)                  3.2822         0.029375   
     94. B(Al 66,Al 63)                  3.2433         0.033896   
     95. B(Al 67,Al 66)                  3.2407         0.034210   
     96. B(Al 67,Al 65)                  3.2224         0.036597   
     97. B(Al 67,Al 64)                  3.1650         0.045185   
     98. B(H  68,Al 67)                  1.5950         0.394689   
     99. B(H  69,Al 67)                  1.6776         0.291449   
    100. B(H  69,Al 64)                  1.6806         0.288248   
    101. B(H  70,Al 67)                  1.6745         0.294790   
    102. B(H  70,Al 66)                  1.6787         0.290268   
    103. B(H  70,H  50)                  2.7676         0.010000   
    104. B(H  70,O  21)                  2.6172         0.010000   
    105. B(H  71,Al 67)                  1.6747         0.294564   
    106. B(H  71,Al 65)                  1.6789         0.290036   
    107. B(H  71,O  20)                  2.7426         0.010000   
    108. B(H  72,Al 65)                  1.5971         0.391702   
    109. B(H  72,O  20)                  2.7822         0.010000   
    110. B(H  72,O  22)                  2.2639         0.010000   
    111. B(H  73,Al 65)                  1.5991         0.388817   
    112. B(H  74,Al 65)                  1.6748         0.294445   
    113. B(H  74,Al 61)                  1.6704         0.299199   
    114. B(H  75,Al 61)                  1.5949         0.394823   
    115. B(H  76,Al 65)                  1.6735         0.295876   
    116. B(H  76,Al 64)                  1.6808         0.287967   
    117. B(H  77,Al 62)                  1.6944         0.273940   
    118. B(H  77,Al 61)                  1.6748         0.294393   
    119. B(H  78,Al 64)                  1.6719         0.297627   
    120. B(H  78,Al 62)                  1.6861         0.282501   
    121. B(H  79,Al 62)                  1.6117         0.371282   
    122. B(H  80,Al 63)                  1.6749         0.294364   
    123. B(H  80,Al 62)                  1.6949         0.273474   
    124. B(H  81,Al 66)                  1.6746         0.294607   
    125. B(H  81,Al 63)                  1.6703         0.299310   
    126. B(H  82,Al 63)                  1.5951         0.394577   
    127. B(H  83,Al 66)                  1.5991         0.388819   
    128. B(H  84,Al 64)                  1.6069         0.377850   
    129. B(H  85,Al 66)                  1.6732         0.296199   
    130. B(H  85,Al 64)                  1.6804         0.288470   
    131. B(H  86,Al 60)                  1.6135         0.368808   
    132. B(H  86,C  45)                  2.9334         0.010000   
    133. B(H  87,Al 60)                  1.6927         0.275738   
    134. B(H  87,H  49)                  2.3857         0.010000   
    135. B(H  87,Al 61)                  1.6757         0.293470   
    136. B(H  88,H  55)                  2.4250         0.010000   
    137. B(H  88,Al 63)                  1.6757         0.293451   
    138. B(H  88,Al 60)                  1.6926         0.275830   
    139. B(H  89,Al 62)                  1.6946         0.273818   
    140. B(H  89,Al 60)                  1.6883         0.280163   
    141. B(H  90,O  21)                  2.7048         0.010000   
    142. B(H  90,O  23)                  2.3328         0.010000   
    143. B(H  90,Al 66)                  1.5973         0.391447   
    144. B(H  91,Al 62)                  1.6920         0.276448   
    145. B(H  91,Al 60)                  1.6884         0.280082   
    146. A(O  12,Zr  0,O  14)           81.0563         0.524370   
    147. A(Zr  5,Zr  0,O   6)           36.3750         0.334977   
    148. A(O  12,Zr  0,O  13)           83.1633         0.558280   
    149. A(O   9,Zr  0,O  15)           71.2430         0.480319   
    150. A(O   6,Zr  0,O   9)           67.4276         0.461282   
    151. A(Zr  5,Zr  0,O  14)          104.1681         0.341209   
    152. A(Zr  3,Zr  0,O   6)           36.6896         0.335204   
    153. A(Zr  3,Zr  0,O  14)          144.7049         0.341441   
    154. A(O   9,Zr  0,O  14)          112.7872         0.470713   
    155. A(Zr  5,Zr  0,O  13)          108.9957         0.360853   
    156. A(O   6,Zr  0,O  13)           82.3013         0.510616   
    157. A(Zr  5,Zr  0,O  11)           35.6712         0.326151   
    158. A(Zr  3,Zr  0,O  12)          127.4939         0.363038   
    159. A(O   9,Zr  0,O  11)           91.9287         0.447924   
    160. A(Zr  3,Zr  0,O  15)           98.4324         0.347794   
    161. A(O  13,Zr  0,O  15)           82.5489         0.532175   
    162. A(O   6,Zr  0,O  12)           95.2913         0.513613   
    163. A(O   9,Zr  0,O  13)           92.1911         0.500444   
    164. A(O   6,Zr  0,O  14)          137.9327         0.480150   
    165. A(O   6,Zr  0,O  11)           66.9474         0.456797   
    166. A(O  11,Zr  0,O  15)          131.8334         0.475605   
    167. A(O  11,Zr  0,O  12)           82.5037         0.498377   
    168. A(Zr  3,Zr  0,O   9)           35.7144         0.329264   
    169. A(Zr  3,Zr  0,O  13)           72.9148         0.361104   
    170. A(O   6,Zr  0,O  15)          135.1214         0.489993   
    171. A(Zr  5,Zr  0,O   9)           91.1191         0.329043   
    172. A(O  12,Zr  0,O  15)          124.3360         0.535326   
    173. A(O  14,Zr  0,O  15)           74.7825         0.500152   
    174. A(Zr  3,Zr  0,O  11)           90.7341         0.326370   
    175. A(O  11,Zr  0,O  14)           71.0358         0.466115   
    176. A(Zr  3,Zr  0,Zr  5)           70.3543         0.247749   
    177. A(Zr  5,Zr  0,O  15)          159.6111         0.347555   
    178. A(O  11,Zr  0,O  13)          144.5024         0.495487   
    179. A(O  13,Zr  0,O  14)          137.7613         0.521297   
    180. A(Zr  5,Zr  0,O  12)           74.7441         0.362785   
    181. A(O   9,Zr  0,O  12)          162.6079         0.503369   
    182. A(O  10,Zr  1,O  18)          146.0779         0.497686   
    183. A(Zr  2,Zr  1,O  19)          126.0741         0.363305   
    184. A(Zr  2,Zr  1,O  16)           99.1170         0.347577   
    185. A(O  10,Zr  1,O  16)          130.8987         0.476018   
    186. A(Zr  4,Zr  1,O  19)           74.5827         0.362555   
    187. A(Zr  4,Zr  1,O  17)          103.7834         0.339865   
    188. A(O  10,Zr  1,O  19)           83.0420         0.499559   
    189. A(O   7,Zr  1,O  16)          135.7314         0.489256   
    190. A(Zr  4,Zr  1,O   7)           36.3478         0.334296   
    191. A(O   7,Zr  1,O   8)           67.5908         0.460067   
    192. A(Zr  4,Zr  1,O  16)          159.0376         0.346870   
    193. A(Zr  2,Zr  1,O  10)           90.6453         0.326833   
    194. A(O  16,Zr  1,O  19)          124.8844         0.535368   
    195. A(Zr  2,Zr  1,O  17)          145.6548         0.340552   
    196. A(O   8,Zr  1,O  19)          161.3996         0.502816   
    197. A(O   7,Zr  1,O  18)           83.2137         0.511666   
    198. A(O  16,Zr  1,O  18)           81.9001         0.533333   
    199. A(O  18,Zr  1,O  19)           83.0474         0.560359   
    200. A(O   8,Zr  1,O  10)           92.2389         0.447794   
    201. A(O  17,Zr  1,O  18)          136.6460         0.521261   
    202. A(O   7,Zr  1,O  19)           94.0976         0.513602   
    203. A(Zr  2,Zr  1,O  18)           73.1727         0.362054   
    204. A(O  10,Zr  1,O  17)           70.8557         0.465504   
    205. A(Zr  4,Zr  1,O  10)           35.6577         0.326183   
    206. A(O   7,Zr  1,O  10)           67.1311         0.457146   
    207. A(Zr  4,Zr  1,O   8)           91.0976         0.328064   
    208. A(O   8,Zr  1,O  17)          114.1452         0.468491   
    209. A(O  17,Zr  1,O  19)           81.3633         0.523242   
    210. A(Zr  2,Zr  1,O   7)           36.6146         0.334968   
    211. A(O  16,Zr  1,O  17)           74.6371         0.498343   
    212. A(O   7,Zr  1,O  17)          137.9815         0.478383   
    213. A(O   8,Zr  1,O  16)           71.3088         0.479088   
    214. A(Zr  4,Zr  1,O  18)          110.5586         0.361308   
    215. A(Zr  2,Zr  1,O   8)           35.6778         0.328720   
    216. A(Zr  2,Zr  1,Zr  4)           70.0756         0.247468   
    217. A(O   8,Zr  1,O  18)           91.2169         0.500928   
    218. A(Zr  5,Zr  2,O   7)           91.8214         0.327771   
    219. A(Zr  1,Zr  2,O  23)          105.0418         0.342051   
    220. A(O  20,Zr  2,O  22)           82.6272         0.558121   
    221. A(O  11,Zr  2,O  20)           92.5820         0.501219   
    222. A(O  21,Zr  2,O  22)          124.8665         0.533537   
    223. A(Zr  1,Zr  2,O  11)           91.1670         0.329695   
    224. A(Zr  5,Zr  2,O  11)           35.6677         0.330716   
    225. A(Zr  5,Zr  2,O  20)           73.1968         0.362294   
    226. A(O  20,Zr  2,O  23)          136.9813         0.522380   
    227. A(O   8,Zr  2,O  20)           82.6210         0.510800   
    228. A(Zr  1,Zr  2,O  21)          159.6896         0.346878   
    229. A(Zr  5,Zr  2,O   8)           36.9361         0.336334   
    230. A(Zr  1,Zr  2,O  22)           74.5132         0.362920   
    231. A(Zr  5,Zr  2,O  21)           97.5270         0.347972   
    232. A(O   7,Zr  2,O  20)          144.5641         0.496197   
    233. A(Zr  1,Zr  2,O   8)           36.3181         0.335289   
    234. A(Zr  1,Zr  2,Zr  5)           70.5676         0.248576   
    235. A(O  11,Zr  2,O  23)          112.2438         0.472306   
    236. A(Zr  5,Zr  2,O  22)          127.2171         0.364082   
    237. A(Zr  1,Zr  2,O   7)           35.8069         0.326763   
    238. A(O   7,Zr  2,O  11)           92.9718         0.449148   
    239. A(O  21,Zr  2,O  23)           74.7608         0.499669   
    240. A(O   8,Zr  2,O  22)           94.8975         0.513560   
    241. A(O   7,Zr  2,O  22)           81.5596         0.498862   
    242. A(O   7,Zr  2,O  23)           71.3012         0.467636   
    243. A(O  11,Zr  2,O  21)           70.7926         0.479617   
    244. A(O   8,Zr  2,O  23)          138.6069         0.481214   
    245. A(O   8,Zr  2,O  21)          134.4589         0.488695   
    246. A(O   7,Zr  2,O  21)          132.8653         0.474858   
    247. A(O   8,Zr  2,O  11)           67.5159         0.462063   
    248. A(Zr  5,Zr  2,O  23)          144.5498         0.343125   
    249. A(O  22,Zr  2,O  23)           82.0830         0.525217   
    250. A(O   7,Zr  2,O   8)           67.4369         0.457518   
    251. A(Zr  1,Zr  2,O  20)          109.1209         0.361140   
    252. A(O  11,Zr  2,O  22)          162.2845         0.503917   
    253. A(O  20,Zr  2,O  21)           81.7345         0.530647   
    254. A(O  10,Zr  3,O  24)          111.7028         0.469212   
    255. A(O  24,Zr  3,O  26)           74.7798         0.499047   
    256. A(O  25,Zr  3,O  26)          123.9942         0.535086   
    257. A(O   6,Zr  3,O  25)           81.4848         0.497785   
    258. A(O  10,Zr  3,O  27)           92.8993         0.500193   
    259. A(O  24,Zr  3,O  25)           81.2932         0.522920   
    260. A(Zr  0,Zr  3,O  27)          108.1171         0.361262   
    261. A(O  26,Zr  3,O  27)           82.6022         0.532458   
    262. A(Zr  4,Zr  3,O  27)           73.1422         0.361130   
    263. A(O   9,Zr  3,O  27)           82.0702         0.510240   
    264. A(Zr  0,Zr  3,O  24)          104.7245         0.340749   
    265. A(O   9,Zr  3,O  26)          134.6471         0.489423   
    266. A(O  10,Zr  3,O  25)          163.2377         0.502630   
    267. A(O  24,Zr  3,O  27)          138.2095         0.520364   
    268. A(O   6,Zr  3,O  27)          143.5944         0.495376   
    269. A(O   9,Zr  3,O  10)           67.2792         0.460289   
    270. A(O  10,Zr  3,O  26)           71.1974         0.479872   
    271. A(Zr  4,Zr  3,O   6)           91.3254         0.326052   
    272. A(Zr  4,Zr  3,O  26)           97.9230         0.347682   
    273. A(Zr  0,Zr  3,O  26)          160.0680         0.347808   
    274. A(O   6,Zr  3,O   9)           67.1098         0.455940   
    275. A(Zr  4,Zr  3,O   9)           36.7282         0.334722   
    276. A(O   9,Zr  3,O  25)           96.0115         0.512737   
    277. A(Zr  4,Zr  3,O  25)          128.3562         0.362743   
    278. A(Zr  0,Zr  3,O  25)           74.8679         0.362876   
    279. A(Zr  0,Zr  3,O   9)           36.2577         0.334841   
    280. A(O   9,Zr  3,O  24)          137.9327         0.478503   
    281. A(O   6,Zr  3,O  24)           70.9983         0.464759   
    282. A(Zr  4,Zr  3,O  24)          143.7684         0.340627   
    283. A(Zr  0,Zr  3,O   6)           35.7987         0.326166   
    284. A(Zr  0,Zr  3,O  10)           91.1190         0.328977   
    285. A(O   6,Zr  3,O  10)           92.5707         0.447188   
    286. A(Zr  0,Zr  3,Zr  4)           70.4017         0.247819   
    287. A(O   6,Zr  3,O  26)          132.9370         0.475294   
    288. A(Zr  4,Zr  3,O  10)           35.6244         0.328861   
    289. A(O  25,Zr  3,O  27)           83.0464         0.558277   
    290. A(Zr  3,Zr  4,O  28)           74.6818         0.362936   
    291. A(Zr  3,Zr  4,O  10)           36.2573         0.335367   
    292. A(O  10,Zr  4,O  31)          135.3116         0.490429   
    293. A(O  29,Zr  4,O  31)           74.2589         0.498076   
    294. A(Zr  1,Zr  4,O  28)          127.2920         0.362325   
    295. A(Zr  1,Zr  4,O  29)          144.8072         0.339501   
    296. A(O   7,Zr  4,O  29)          113.0925         0.466926   
    297. A(O  30,Zr  4,O  31)           82.6614         0.533071   
    298. A(O  28,Zr  4,O  31)          124.3294         0.535349   
    299. A(O   9,Zr  4,O  31)          131.5627         0.474836   
    300. A(O   9,Zr  4,O  28)           82.0759         0.497634   
    301. A(Zr  1,Zr  4,O  10)           36.5055         0.334818   
    302. A(Zr  1,Zr  4,O  31)           98.8093         0.347076   
    303. A(O  29,Zr  4,O  30)          137.3538         0.520035   
    304. A(O  10,Zr  4,O  30)           82.9221         0.511978   
    305. A(O   7,Zr  4,O  30)           91.7803         0.499255   
    306. A(Zr  3,Zr  4,O  30)          109.2671         0.361537   
    307. A(O  28,Zr  4,O  29)           81.1846         0.522247   
    308. A(O  10,Zr  4,O  29)          137.8212         0.478646   
    309. A(O   9,Zr  4,O  29)           70.8546         0.463510   
    310. A(O   9,Zr  4,O  10)           67.0512         0.456509   
    311. A(O  10,Zr  4,O  28)           95.4313         0.514148   
    312. A(O   7,Zr  4,O   9)           92.9162         0.445455   
    313. A(O   7,Zr  4,O  10)           67.2914         0.459861   
    314. A(Zr  3,Zr  4,O   9)           35.8461         0.325797   
    315. A(Zr  1,Zr  4,O   9)           91.1662         0.325270   
    316. A(Zr  3,Zr  4,O   7)           91.4341         0.327957   
    317. A(Zr  1,Zr  4,O   7)           35.6754         0.327424   
    318. A(Zr  1,Zr  4,O  30)           73.1294         0.360930   
    319. A(Zr  1,Zr  4,Zr  3)           70.2535         0.247388   
    320. A(O   9,Zr  4,O  30)          144.8698         0.495548   
    321. A(Zr  3,Zr  4,O  29)          104.3338         0.340060   
    322. A(O  28,Zr  4,O  30)           83.1147         0.559309   
    323. A(O   7,Zr  4,O  28)          162.5236         0.501361   
    324. A(O   7,Zr  4,O  31)           71.1463         0.478355   
    325. A(Zr  3,Zr  4,O  31)          159.5369         0.347653   
    326. A(Zr  2,Zr  5,O  33)          108.8247         0.362582   
    327. A(O  32,Zr  5,O  35)          124.6753         0.533606   
    328. A(O  11,Zr  5,O  33)           82.6384         0.512282   
    329. A(O  32,Zr  5,O  33)           82.7079         0.531297   
    330. A(Zr  2,Zr  5,O   6)           91.2010         0.329181   
    331. A(O  33,Zr  5,O  34)          137.3449         0.522279   
    332. A(Zr  0,Zr  5,O  34)          144.7130         0.341487   
    333. A(O  32,Zr  5,O  34)           74.4563         0.499310   
    334. A(O  11,Zr  5,O  34)          138.1708         0.481671   
    335. A(O   6,Zr  5,O  34)          112.6102         0.469380   
    336. A(Zr  2,Zr  5,O  32)          159.3438         0.348079   
    337. A(Zr  0,Zr  5,O  32)           97.9999         0.346742   
    338. A(O   6,Zr  5,O  32)           70.7955         0.477297   
    339. A(O   8,Zr  5,O  33)          144.4909         0.494065   
    340. A(O   6,Zr  5,O  33)           92.3574         0.499033   
    341. A(Zr  0,Zr  5,O  33)           73.0354         0.361170   
    342. A(Zr  0,Zr  5,Zr  2)           70.3957         0.248426   
    343. A(O  11,Zr  5,O  32)          134.6031         0.489843   
    344. A(O   8,Zr  5,O  32)          131.8505         0.472592   
    345. A(O  33,Zr  5,O  35)           82.8531         0.558495   
    346. A(O   8,Zr  5,O  34)           71.1264         0.464771   
    347. A(Zr  0,Zr  5,O   6)           35.6873         0.327941   
    348. A(O  34,Zr  5,O  35)           81.3859         0.524541   
    349. A(Zr  2,Zr  5,O  34)          104.7776         0.342797   
    350. A(Zr  0,Zr  5,O  35)          127.5250         0.362591   
    351. A(Zr  2,Zr  5,O   8)           35.9405         0.326270   
    352. A(Zr  2,Zr  5,O  35)           74.7640         0.364011   
    353. A(Zr  0,Zr  5,O   8)           91.4029         0.325045   
    354. A(O  11,Zr  5,O  35)           95.6123         0.514492   
    355. A(O   8,Zr  5,O  11)           67.1566         0.456101   
    356. A(O   6,Zr  5,O  35)          162.6451         0.501174   
    357. A(O   6,Zr  5,O  11)           67.1718         0.460603   
    358. A(O   8,Zr  5,O  35)           82.0291         0.496180   
    359. A(Zr  2,Zr  5,O  11)           36.2703         0.336941   
    360. A(Zr  0,Zr  5,O  11)           36.6052         0.335661   
    361. A(O   6,Zr  5,O   8)           92.6296         0.444610   
    362. A(Zr  0,O   6,Zr  5)          107.9377         0.459572   
    363. A(Zr  3,O   6,Zr  5)          134.3981         0.445970   
    364. A(Zr  0,O   6,Zr  3)          107.5117         0.456482   
    365. A(Zr  2,O   7,Zr  4)          133.7086         0.446728   
    366. A(Zr  1,O   7,Zr  4)          107.9768         0.459073   
    367. A(Zr  1,O   7,Zr  2)          107.5785         0.457038   
    368. A(Zr  1,O   8,Zr  5)          134.7536         0.445433   
    369. A(Zr  1,O   8,Zr  2)          108.0041         0.460551   
    370. A(Zr  2,O   8,Zr  5)          107.1234         0.455201   
    371. A(Zr  3,O   9,Zr  4)          107.4256         0.455547   
    372. A(Zr  0,O   9,Zr  4)          134.8095         0.447232   
    373. A(Zr  0,O   9,Zr  3)          108.0279         0.460733   
    374. A(Zr  1,O  10,Zr  4)          107.8368         0.457930   
    375. A(Zr  1,O  10,Zr  3)          134.6427         0.448187   
    376. A(Zr  3,O  10,Zr  4)          108.1183         0.461264   
    377. A(Zr  2,O  11,Zr  5)          108.0620         0.462979   
    378. A(Zr  0,O  11,Zr  5)          107.7236         0.457820   
    379. A(Zr  0,O  11,Zr  2)          134.8917         0.448560   
    380. A(Zr  0,O  12,C  36)          131.2092         0.511437   
    381. A(Zr  0,O  13,C  37)          133.4755         0.508342   
    382. A(Zr  0,O  14,C  38)          138.8393         0.477791   
    383. A(Zr  0,O  15,C  39)          129.0736         0.488308   
    384. A(Zr  1,O  16,C  40)          129.8954         0.488102   
    385. A(Zr  1,O  17,C  41)          140.3155         0.476439   
    386. A(Zr  1,O  18,C  42)          133.1550         0.509935   
    387. A(Zr  1,O  19,C  43)          131.4478         0.511854   
    388. A(C  44,O  20,H  71)          104.9671         0.156345   
    389. A(Zr  2,O  20,H  71)          119.2865         0.163822   
    390. A(H  71,O  20,H  72)           46.9935         0.100623   
    391. A(Zr  2,O  20,H  72)           82.9316         0.161402   
    392. A(Zr  2,O  20,C  44)          133.2007         0.508496   
    393. A(C  44,O  20,H  72)          142.8444         0.154167   
    394. A(Zr  2,O  21,C  38)          129.6043         0.486878   
    395. A(C  38,O  21,H  90)          115.7097         0.158561   
    396. A(H  70,O  21,H  90)           49.8661         0.102759   
    397. A(Zr  2,O  21,H  90)           85.8706         0.162166   
    398. A(C  38,O  21,H  70)          100.7998         0.163819   
    399. A(Zr  2,O  21,H  70)          125.4720         0.167698   
    400. A(Zr  2,O  22,H  72)           98.3300         0.201132   
    401. A(Zr  2,O  22,C  42)          131.1851         0.511226   
    402. A(C  42,O  22,H  72)          126.4705         0.189266   
    403. A(C  45,O  23,H  90)          118.8425         0.183605   
    404. A(Zr  2,O  23,H  90)           95.8687         0.186822   
    405. A(Zr  2,O  23,C  45)          140.8570         0.478728   
    406. A(Zr  3,O  24,C  46)          139.5858         0.476600   
    407. A(Zr  3,O  25,C  37)          130.9164         0.511141   
    408. A(Zr  3,O  26,C  41)          129.3331         0.488306   
    409. A(Zr  3,O  27,C  47)          133.2614         0.508650   
    410. A(Zr  4,O  28,C  47)          131.3475         0.511490   
    411. A(Zr  4,O  29,C  39)          140.2346         0.475877   
    412. A(Zr  4,O  30,C  43)          133.2933         0.509296   
    413. A(Zr  4,O  31,C  45)          128.0250         0.488199   
    414. A(Zr  5,O  32,C  46)          128.4652         0.486921   
    415. A(Zr  5,O  33,C  36)          133.4283         0.508901   
    416. A(Zr  5,O  34,C  40)          140.4366         0.478405   
    417. A(Zr  5,O  35,C  44)          131.2010         0.511141   
    418. A(O  12,C  36,O  33)          127.4501         0.466545   
    419. A(O  33,C  36,H  58)          116.2551         0.365075   
    420. A(O  12,C  36,H  58)          116.2945         0.365104   
    421. A(O  13,C  37,O  25)          127.4848         0.466442   
    422. A(O  25,C  37,H  51)          116.2747         0.365058   
    423. A(O  13,C  37,H  51)          116.2403         0.365013   
    424. A(O  14,C  38,O  21)          129.2821         0.466583   
    425. A(O  21,C  38,H  50)          115.3823         0.366123   
    426. A(O  14,C  38,H  50)          115.3347         0.365620   
    427. A(O  15,C  39,O  29)          129.2742         0.466617   
    428. A(O  15,C  39,H  54)          115.3424         0.366079   
    429. A(O  29,C  39,H  54)          115.3832         0.365589   
    430. A(O  16,C  40,O  34)          129.2444         0.466900   
    431. A(O  34,C  40,H  56)          115.3968         0.365746   
    432. A(O  16,C  40,H  56)          115.3586         0.366219   
    433. A(O  17,C  41,O  26)          129.3508         0.466595   
    434. A(O  26,C  41,H  48)          115.3184         0.366071   
    435. A(O  17,C  41,H  48)          115.3308         0.365597   
    436. A(O  18,C  42,O  22)          127.4486         0.466587   
    437. A(O  22,C  42,H  49)          116.5459         0.365135   
    438. A(O  18,C  42,H  49)          116.0039         0.365164   
    439. A(O  19,C  43,H  52)          116.2912         0.365080   
    440. A(O  30,C  43,H  52)          116.2650         0.365050   
    441. A(O  19,C  43,O  30)          127.4428         0.466569   
    442. A(O  20,C  44,O  35)          127.4426         0.466584   
    443. A(O  35,C  44,H  59)          116.2841         0.365129   
    444. A(O  20,C  44,H  59)          116.2730         0.365123   
    445. A(O  31,C  45,H  55)          115.3239         0.366007   
    446. A(O  23,C  45,H  55)          115.4173         0.365561   
    447. A(H  55,C  45,H  86)           80.4111         0.132704   
    448. A(O  31,C  45,H  86)           95.4554         0.148657   
    449. A(O  23,C  45,H  86)           93.1792         0.148561   
    450. A(O  23,C  45,O  31)          129.2565         0.466517   
    451. A(O  32,C  46,H  57)          115.3267         0.365939   
    452. A(O  24,C  46,H  57)          115.3759         0.365432   
    453. A(O  24,C  46,O  32)          129.2967         0.466346   
    454. A(O  28,C  47,H  53)          116.2697         0.365092   
    455. A(O  27,C  47,H  53)          116.2475         0.365056   
    456. A(O  27,C  47,O  28)          127.4826         0.466545   
    457. A(C  42,H  49,H  87)          121.1310         0.126812   
    458. A(C  38,H  50,H  70)           99.2182         0.116597   
    459. A(C  45,H  55,H  88)          123.3333         0.125683   
    460. A(H  88,Al 60,H  89)           89.4989         0.339427   
    461. A(H  87,Al 60,H  89)           88.8708         0.339408   
    462. A(Al 63,Al 60,H  89)           76.7414         0.293602   
    463. A(Al 62,Al 60,H  89)           37.1963         0.388192   
    464. A(Al 61,Al 60,H  89)           76.6414         0.292098   
    465. A(H  87,Al 60,H  88)          168.6138         0.338526   
    466. A(Al 63,Al 60,H  88)           20.4113         0.292881   
    467. A(Al 62,Al 60,H  88)           86.2685         0.387139   
    468. A(Al 61,Al 60,H  88)          149.6612         0.291383   
    469. A(H  86,Al 60,H  87)           94.4478         0.355484   
    470. A(Al 62,Al 60,H  87)           85.6249         0.387116   
    471. A(Al 61,Al 60,H  87)           19.9817         0.291368   
    472. A(Al 63,Al 60,H  86)          114.3203         0.306737   
    473. A(Al 61,Al 60,H  86)          114.0827         0.305137   
    474. A(H  86,Al 60,H  89)          138.7154         0.356446   
    475. A(Al 63,Al 60,H  87)          149.2968         0.292866   
    476. A(H  89,Al 60,H  91)           74.3016         0.340295   
    477. A(H  86,Al 60,H  88)           94.2081         0.355504   
    478. A(Al 62,Al 60,Al 63)           66.4646         0.332583   
    479. A(Al 61,Al 60,Al 63)          129.4971         0.254350   
    480. A(Al 61,Al 60,Al 62)           66.3176         0.330793   
    481. A(H  88,Al 60,H  91)           84.5608         0.339411   
    482. A(H  87,Al 60,H  91)           84.1495         0.339392   
    483. A(H  86,Al 60,H  91)          146.9821         0.356428   
    484. A(Al 62,Al 60,H  91)           37.1053         0.388173   
    485. A(Al 61,Al 60,H  91)           65.8470         0.292085   
    486. A(Al 63,Al 60,H  91)           65.9894         0.293588   
    487. A(H  77,Al 61,H  87)           85.4657         0.345829   
    488. A(H  75,Al 61,H  87)          115.8019         0.363471   
    489. A(H  74,Al 61,H  87)          106.4317         0.346773   
    490. A(Al 65,Al 61,H  87)           96.4794         0.280162   
    491. A(Al 62,Al 61,H  87)           69.4922         0.283295   
    492. A(Al 60,Al 61,H  87)           20.1927         0.294243   
    493. A(H  74,Al 61,H  77)          104.1095         0.346956   
    494. A(Al 65,Al 61,H  77)           94.1013         0.280298   
    495. A(Al 62,Al 61,H  77)           16.6676         0.283433   
    496. A(Al 60,Al 61,H  77)           66.2960         0.294389   
    497. A(H  74,Al 61,H  75)          120.0861         0.364675   
    498. A(Al 65,Al 61,H  75)          133.8818         0.293439   
    499. A(Al 62,Al 61,H  75)          129.6791         0.296789   
    500. A(Al 60,Al 61,H  75)          129.7502         0.308497   
    501. A(Al 65,Al 61,H  74)           13.7982         0.281001   
    502. A(Al 62,Al 61,H  74)          103.4037         0.284147   
    503. A(Al 60,Al 61,H  74)          103.9228         0.295143   
    504. A(H  75,Al 61,H  77)          119.1574         0.363666   
    505. A(Al 62,Al 61,Al 65)           91.0827         0.233720   
    506. A(Al 60,Al 61,Al 65)           91.2897         0.241874   
    507. A(Al 60,Al 61,Al 62)           49.9042         0.244380   
    508. A(H  80,Al 62,H  89)           85.2363         0.337649   
    509. A(H  79,Al 62,H  89)          102.1124         0.355465   
    510. A(H  77,Al 62,H  89)           85.5353         0.337745   
    511. A(Al 64,Al 62,H  89)          141.1366         0.271578   
    512. A(Al 63,Al 62,H  89)           74.3942         0.280192   
    513. A(Al 61,Al 62,H  89)           74.5778         0.280271   
    514. A(Al 60,Al 62,H  89)           37.0365         0.386645   
    515. A(H  78,Al 62,H  89)          153.0062         0.339483   
    516. A(Al 60,Al 62,H  80)           79.7065         0.386560   
    517. A(H  79,Al 62,H  80)          100.9798         0.355390   
    518. A(H  78,Al 62,H  80)           90.4749         0.339412   
    519. A(Al 64,Al 62,H  80)           87.8145         0.271526   
    520. A(Al 63,Al 62,H  80)           16.4655         0.280137   
    521. A(Al 61,Al 62,H  80)          140.6757         0.280216   
    522. A(H  78,Al 62,H  79)          104.8673         0.357355   
    523. A(H  77,Al 62,H  79)          102.0135         0.355492   
    524. A(Al 64,Al 62,H  79)          116.7475         0.284604   
    525. A(H  77,Al 62,H  80)          156.5533         0.337674   
    526. A(Al 63,Al 62,H  79)          114.9606         0.293833   
    527. A(Al 61,Al 62,H  79)          115.9091         0.293918   
    528. A(Al 60,Al 62,H  79)          139.1464         0.407882   
    529. A(H  77,Al 62,H  78)           88.0424         0.339508   
    530. A(Al 64,Al 62,H  78)           11.8844         0.272872   
    531. A(Al 63,Al 62,H  78)           94.7780         0.281547   
    532. A(Al 61,Al 62,H  78)           92.6945         0.281627   
    533. A(Al 60,Al 62,H  78)          115.9855         0.388756   
    534. A(Al 64,Al 62,H  77)           85.9469         0.271596   
    535. A(Al 63,Al 62,H  77)          140.6539         0.280211   
    536. A(Al 61,Al 62,H  77)           16.4693         0.280290   
    537. A(Al 60,Al 62,H  77)           79.9500         0.386675   
    538. A(Al 64,Al 62,H  91)           67.0959         0.271973   
    539. A(Al 63,Al 62,Al 64)           88.9890         0.229348   
    540. A(Al 61,Al 62,Al 64)           87.4253         0.229406   
    541. A(Al 60,Al 62,Al 64)          104.1061         0.307492   
    542. A(Al 61,Al 62,Al 63)          124.4221         0.236031   
    543. A(Al 60,Al 62,Al 63)           63.5652         0.317801   
    544. A(Al 60,Al 62,Al 61)           63.7782         0.317896   
    545. A(H  89,Al 62,H  91)           74.0508         0.338258   
    546. A(H  80,Al 62,H  91)           78.3385         0.338187   
    547. A(H  78,Al 62,H  91)           78.9784         0.340026   
    548. A(H  77,Al 62,H  91)           78.4114         0.338283   
    549. A(Al 63,Al 62,H  91)           63.7897         0.280606   
    550. A(Al 61,Al 62,H  91)           63.9188         0.280685   
    551. A(Al 60,Al 62,H  91)           37.0143         0.387290   
    552. A(H  82,Al 63,H  88)          116.3716         0.363429   
    553. A(H  81,Al 63,H  88)          105.1705         0.346790   
    554. A(H  80,Al 63,H  88)           86.0036         0.345820   
    555. A(Al 66,Al 63,H  88)           94.7599         0.281065   
    556. A(Al 62,Al 63,H  88)           70.0529         0.283212   
    557. A(Al 60,Al 63,H  88)           20.6260         0.295759   
    558. A(H  80,Al 63,H  82)          119.6588         0.363622   
    559. A(Al 66,Al 63,H  82)          134.7107         0.294378   
    560. A(Al 62,Al 63,H  82)          130.4884         0.296674   
    561. A(Al 60,Al 63,H  82)          130.6238         0.310091   
    562. A(H  80,Al 63,H  81)          103.1071         0.346972   
    563. A(Al 66,Al 63,H  81)           14.1844         0.281927   
    564. A(Al 62,Al 63,H  81)          102.0289         0.284083   
    565. A(Al 60,Al 63,H  81)          102.6231         0.296686   
    566. A(Al 66,Al 63,H  80)           93.0278         0.281200   
    567. A(Al 62,Al 63,H  80)           16.6682         0.283349   
    568. A(Al 60,Al 63,H  80)           66.3371         0.295905   
    569. A(H  81,Al 63,H  82)          120.5392         0.364659   
    570. A(Al 62,Al 63,Al 66)           89.5132         0.234345   
    571. A(Al 60,Al 63,Al 66)           89.4995         0.243736   
    572. A(Al 60,Al 63,Al 62)           49.9701         0.245465   
    573. A(H  78,Al 64,H  85)           89.6470         0.345466   
    574. A(H  76,Al 64,H  85)          113.1154         0.343558   
    575. A(H  69,Al 64,H  85)           80.9630         0.343614   
    576. A(Al 66,Al 64,H  85)           11.8123         0.274223   
    577. A(Al 65,Al 64,H  85)          102.4651         0.274978   
    578. A(Al 62,Al 64,H  85)           82.7064         0.273744   
    579. A(H  76,Al 64,H  84)          123.0996         0.359593   
    580. A(H  69,Al 64,H  84)           94.5430         0.359653   
    581. A(Al 67,Al 64,H  84)          114.0499         0.306047   
    582. A(Al 66,Al 64,H  84)          129.3155         0.285891   
    583. A(Al 65,Al 64,H  84)          131.1339         0.286693   
    584. A(Al 62,Al 64,H  84)          113.4597         0.285382   
    585. A(H  76,Al 64,H  78)           91.3738         0.345364   
    586. A(H  69,Al 64,H  78)          163.9395         0.345421   
    587. A(Al 67,Al 64,H  78)          144.4392         0.294634   
    588. A(Al 66,Al 64,H  78)           96.4486         0.275538   
    589. A(Al 65,Al 64,H  78)           97.6513         0.276298   
    590. A(Al 62,Al 64,H  78)           11.9868         0.275056   
    591. A(H  69,Al 64,H  76)           80.5257         0.343513   
    592. A(Al 67,Al 64,H  76)           70.7537         0.293104   
    593. A(Al 66,Al 64,H  76)          103.1877         0.274150   
    594. A(Al 65,Al 64,H  76)           12.2719         0.274904   
    595. A(Al 62,Al 64,H  76)           85.1619         0.273671   
    596. A(Al 67,Al 64,H  69)           19.5091         0.293149   
    597. A(Al 66,Al 64,H  69)           72.2462         0.274191   
    598. A(Al 65,Al 64,H  69)           71.9910         0.274945   
    599. A(H  78,Al 64,H  84)          101.4896         0.361622   
    600. A(Al 62,Al 64,H  69)          151.9529         0.273712   
    601. A(Al 66,Al 64,Al 67)           60.3193         0.237512   
    602. A(Al 65,Al 64,Al 67)           59.9949         0.238117   
    603. A(Al 67,Al 64,H  85)           70.9958         0.293185   
    604. A(Al 62,Al 64,Al 67)          132.4537         0.237128   
    605. A(Al 65,Al 64,Al 66)           91.9528         0.224269   
    606. A(Al 62,Al 64,Al 66)           87.8914         0.223372   
    607. A(H  84,Al 64,H  85)          122.0204         0.359700   
    608. A(Al 62,Al 64,Al 65)           89.5922         0.223920   
    609. A(H  74,Al 65,H  76)           88.2815         0.346315   
    610. A(H  73,Al 65,H  76)           90.8401         0.363026   
    611. A(H  72,Al 65,H  76)           85.2170         0.363485   
    612. A(H  71,Al 65,H  76)           84.0271         0.345437   
    613. A(Al 67,Al 65,H  76)           69.0915         0.284792   
    614. A(Al 64,Al 65,H  76)           12.3268         0.276048   
    615. A(Al 61,Al 65,H  76)           79.8195         0.280516   
    616. A(H  73,Al 65,H  74)           95.5108         0.362726   
    617. A(H  72,Al 65,H  74)           85.5548         0.363185   
    618. A(H  71,Al 65,H  74)          167.8743         0.345156   
    619. A(Al 67,Al 65,H  74)          152.7709         0.284577   
    620. A(Al 64,Al 65,H  74)           97.3171         0.275843   
    621. A(Al 61,Al 65,H  74)           13.7615         0.280306   
    622. A(H  71,Al 65,H  73)           93.9651         0.361793   
    623. A(Al 67,Al 65,H  73)           99.6243         0.297279   
    624. A(Al 64,Al 65,H  73)           98.2570         0.287978   
    625. A(Al 61,Al 65,H  73)          106.2975         0.292731   
    626. A(H  71,Al 65,H  72)           84.4768         0.362250   
    627. A(Al 67,Al 65,H  72)           77.8863         0.297628   
    628. A(Al 64,Al 65,H  72)           77.6582         0.288311   
    629. A(Al 61,Al 65,H  72)           74.1832         0.293072   
    630. A(Al 67,Al 65,H  71)           16.0585         0.283910   
    631. A(Al 64,Al 65,H  71)           73.8016         0.275206   
    632. A(Al 61,Al 65,H  71)          154.1139         0.279654   
    633. A(Al 64,Al 65,Al 67)           58.2726         0.231169   
    634. A(Al 61,Al 65,Al 67)          139.5094         0.234565   
    635. A(Al 61,Al 65,Al 64)           87.2349         0.228065   
    636. A(Al 63,Al 66,H  90)           74.0090         0.294009   
    637. A(H  83,Al 66,H  85)           91.8303         0.363095   
    638. A(H  81,Al 66,H  85)           89.4040         0.346410   
    639. A(H  70,Al 66,H  85)           82.9491         0.345547   
    640. A(Al 67,Al 66,H  85)           68.7826         0.281873   
    641. A(Al 64,Al 66,H  85)           11.8639         0.275335   
    642. A(Al 63,Al 66,H  85)           80.8141         0.281471   
    643. A(H  81,Al 66,H  83)           94.8128         0.362761   
    644. A(H  70,Al 66,H  83)           93.5343         0.361843   
    645. A(Al 67,Al 66,H  83)           98.0931         0.294124   
    646. A(Al 64,Al 66,H  83)           98.0583         0.287171   
    647. A(Al 63,Al 66,H  83)          106.1732         0.293696   
    648. A(H  70,Al 66,H  81)          168.8507         0.345235   
    649. A(Al 67,Al 66,H  81)          154.8701         0.281638   
    650. A(Al 64,Al 66,H  81)           98.8828         0.275108   
    651. A(Al 63,Al 66,H  81)           14.1472         0.281236   
    652. A(Al 67,Al 66,H  70)           14.8585         0.280992   
    653. A(Al 64,Al 66,H  70)           72.5941         0.274484   
    654. A(Al 63,Al 66,H  70)          154.7350         0.280592   
    655. A(Al 64,Al 66,Al 67)           58.0482         0.228448   
    656. A(Al 63,Al 66,Al 67)          141.4921         0.233039   
    657. A(Al 63,Al 66,Al 64)           88.8143         0.228157   
    658. A(H  85,Al 66,H  90)           88.8596         0.363513   
    659. A(H  81,Al 66,H  90)           85.2665         0.363178   
    660. A(H  70,Al 66,H  90)           86.4764         0.362259   
    661. A(Al 67,Al 66,H  90)           82.0880         0.294437   
    662. A(Al 64,Al 66,H  90)           82.6079         0.287473   
    663. A(H  70,Al 67,H  71)          114.6674         0.346124   
    664. A(H  69,Al 67,H  71)           87.3786         0.345462   
    665. A(H  68,Al 67,H  71)          120.0157         0.363681   
    666. A(Al 66,Al 67,H  71)          106.1108         0.281632   
    667. A(Al 65,Al 67,H  71)           16.1001         0.284595   
    668. A(Al 64,Al 67,H  71)           77.2913         0.294153   
    669. A(H  69,Al 67,H  70)           86.6027         0.345506   
    670. A(H  68,Al 67,H  70)          120.1285         0.363729   
    671. A(Al 66,Al 67,H  70)           14.8967         0.281665   
    672. A(Al 65,Al 67,H  70)          104.6260         0.284629   
    673. A(Al 64,Al 67,H  70)           76.2098         0.294189   
    674. A(H  68,Al 67,H  69)          117.3975         0.363021   
    675. A(Al 66,Al 67,H  69)           73.5265         0.281169   
    676. A(Al 65,Al 67,H  69)           73.6780         0.284125   
    677. A(Al 64,Al 67,H  69)           19.5455         0.293660   
    678. A(Al 66,Al 67,H  68)          132.3537         0.294821   
    679. A(Al 65,Al 67,H  68)          133.7623         0.297987   
    680. A(Al 64,Al 67,H  68)          136.9409         0.308200   
    681. A(Al 65,Al 67,Al 66)           93.7356         0.235561   
    682. A(Al 64,Al 67,Al 66)           61.6325         0.242723   
    683. A(Al 64,Al 67,Al 65)           61.7326         0.245088   
    684. A(Al 64,H  69,Al 67)          140.9454         0.344207   
    685. A(Al 66,H  70,Al 67)          150.2448         0.345270   
    686. A(O  21,H  70,H  50)           43.8977         0.096451   
    687. A(H  50,H  70,Al 67)          119.5506         0.120060   
    688. A(H  50,H  70,Al 66)           89.1509         0.119951   
    689. A(O  21,H  70,Al 67)          100.2664         0.150691   
    690. A(O  21,H  70,Al 66)           95.5013         0.150476   
    691. A(Al 65,H  71,Al 67)          147.8414         0.345180   
    692. A(O  20,H  71,Al 67)          106.2900         0.144570   
    693. A(O  20,H  71,Al 65)           90.2851         0.144375   
    694. A(O  20,H  72,O  22)           61.1667         0.106306   
    695. A(O  20,H  72,Al 65)           90.6148         0.146356   
    696. A(O  22,H  72,Al 65)          128.1447         0.177251   
    697. A(Al 61,H  74,Al 65)          152.4403         0.346966   
    698. A(Al 64,H  76,Al 65)          155.4013         0.345022   
    699. A(Al 61,H  77,Al 62)          146.8631         0.341857   
    700. A(Al 62,H  78,Al 64)          156.1287         0.344255   
    701. A(Al 62,H  80,Al 63)          146.8664         0.341754   
    702. A(Al 63,H  81,Al 66)          151.6684         0.347020   
    703. A(Al 64,H  85,Al 66)          156.3238         0.345187   
    704. A(C  45,H  86,Al 60)          105.4649         0.140757   
    705. A(Al 60,H  87,Al 61)          139.8256         0.342052   
    706. A(H  49,H  87,Al 61)           99.7826         0.131624   
    707. A(H  49,H  87,Al 60)          112.3379         0.131027   
    708. A(Al 60,H  88,Al 63)          138.9627         0.342067   
    709. A(H  55,H  88,Al 63)          100.8817         0.130253   
    710. A(H  55,H  88,Al 60)          111.1126         0.129678   
    711. A(Al 60,H  89,Al 62)          105.7672         0.339012   
    712. A(O  21,H  90,O  23)           58.7861         0.106428   
    713. A(O  21,H  90,Al 66)           94.2649         0.150157   
    714. A(O  23,H  90,Al 66)          126.7218         0.172326   
    715. A(Al 60,H  91,Al 62)          105.8805         0.339538   
    716. D(Zr  5,Zr  2,Zr  1,Zr  4)    104.6850         0.010000   
    717. D(O   7,Zr  2,Zr  1,Zr  4)    -18.4519         0.010000   
    718. D(Zr  5,Zr  2,Zr  1,O   7)    123.1368         0.010000   
    719. D(Zr  4,Zr  3,Zr  0,Zr  5)   -104.5213         0.010000   
    720. D(O   6,Zr  3,Zr  0,Zr  5)     17.8683         0.010000   
    721. D(Zr  4,Zr  3,Zr  0,O   6)   -122.3897         0.010000   
    722. D(Zr  3,Zr  4,Zr  1,O   7)   -123.0661         0.010000   
    723. D(O   7,Zr  4,Zr  1,Zr  2)     18.5726         0.010000   
    724. D(Zr  1,Zr  4,Zr  3,Zr  0)    104.8405         0.010000   
    725. D(Zr  1,Zr  4,Zr  3,O   6)     75.2321         0.010000   
    726. D(Zr  3,Zr  4,Zr  1,Zr  2)   -104.4935         0.010000   
    727. D(O   7,Zr  4,Zr  3,Zr  0)     75.5727         0.010000   
    728. D(O   6,Zr  5,Zr  0,Zr  3)    -18.0058         0.010000   
    729. D(Zr  2,Zr  5,Zr  0,O   6)    122.2783         0.010000   
    730. D(Zr  2,Zr  5,Zr  0,Zr  3)    104.2725         0.010000   
    731. D(Zr  0,Zr  5,Zr  2,O   7)    -75.3157         0.010000   
    732. D(O   6,Zr  5,Zr  2,Zr  1)    -75.1074         0.010000   
    733. D(Zr  0,Zr  5,Zr  2,Zr  1)   -104.6664         0.010000   
    734. D(Zr  0,O   6,Zr  5,O   8)    -88.7432         0.010000   
    735. D(Zr  5,O   6,Zr  3,Zr  0)   -139.5490         0.010000   
    736. D(Zr  0,O   6,Zr  5,Zr  2)    -52.8094         0.010000   
    737. D(Zr  0,O   6,Zr  3,Zr  4)     52.7231         0.010000   
    738. D(Zr  3,O   6,Zr  0,O   9)    -23.9692         0.010000   
    739. D(Zr  0,O   6,Zr  3,O   9)     24.3646         0.010000   
    740. D(Zr  3,O   6,Zr  5,Zr  0)    139.4327         0.010000   
    741. D(Zr  5,O   6,Zr  0,Zr  3)    150.8402         0.010000   
    742. D(Zr  3,O   6,Zr  0,Zr  5)   -150.8402         0.010000   
    743. D(Zr  1,O   7,Zr  2,Zr  5)    -52.1917         0.010000   
    744. D(Zr  4,O   7,Zr  1,Zr  2)   -149.8638         0.010000   
    745. D(Zr  2,O   7,Zr  1,Zr  4)    149.8638         0.010000   
    746. D(Zr  1,O   7,Zr  2,O   8)    -23.7387         0.010000   
    747. D(Zr  2,O   7,Zr  1,O   8)     23.3271         0.010000   
    748. D(Zr  2,O   7,Zr  4,Zr  1)   -138.5392         0.010000   
    749. D(Zr  1,O   7,Zr  4,O   9)     87.9362         0.010000   
    750. D(Zr  1,O   7,Zr  4,Zr  3)     52.0930         0.010000   
    751. D(Zr  4,O   7,Zr  2,Zr  1)    138.6518         0.010000   
    752. D(Zr  1,O   8,Zr  2,Zr  5)    151.0182         0.010000   
    753. D(Zr  2,O   8,Zr  5,Zr  0)     52.7284         0.010000   
    754. D(Zr  5,O   8,Zr  2,Zr  1)   -151.0182         0.010000   
    755. D(Zr  1,O   8,Zr  5,Zr  2)   -139.5417         0.010000   
    756. D(Zr  1,O   8,Zr  5,Zr  0)    -86.8134         0.010000   
    757. D(Zr  2,O   8,Zr  1,O   7)    -23.8876         0.010000   
    758. D(Zr  5,O   8,Zr  1,Zr  2)    139.3030         0.010000   
    759. D(Zr  2,O   8,Zr  1,Zr  4)    -52.3314         0.010000   
    760. D(Zr  1,O   8,Zr  2,O   7)     23.4323         0.010000   
    761. D(Zr  4,O   9,Zr  0,Zr  3)   -140.1035         0.010000   
    762. D(Zr  0,O   9,Zr  3,O   6)    -24.0807         0.010000   
    763. D(Zr  0,O   9,Zr  4,Zr  3)    140.2640         0.010000   
    764. D(Zr  4,O   9,Zr  3,Zr  0)    151.5147         0.010000   
    765. D(Zr  0,O   9,Zr  4,Zr  1)     87.5096         0.010000   
    766. D(Zr  0,O   9,Zr  3,Zr  4)   -151.5147         0.010000   
    767. D(Zr  3,O   9,Zr  0,Zr  5)     52.8991         0.010000   
    768. D(Zr  3,O   9,Zr  0,O   6)     24.5699         0.010000   
    769. D(Zr  3,O   9,Zr  4,Zr  1)    -52.7544         0.010000   
    770. D(Zr  3,O  10,Zr  4,Zr  1)    151.8799         0.010000   
    771. D(Zr  1,O  10,Zr  4,O   7)    -23.8213         0.010000   
    772. D(Zr  4,O  10,Zr  3,Zr  0)    -52.8982         0.010000   
    773. D(Zr  1,O  10,Zr  3,Zr  0)     88.0082         0.010000   
    774. D(Zr  1,O  10,Zr  4,Zr  3)   -151.8799         0.010000   
    775. D(Zr  1,O  10,Zr  3,Zr  4)    140.9063         0.010000   
    776. D(Zr  3,O  10,Zr  1,Zr  4)   -140.9804         0.010000   
    777. D(Zr  4,O  10,Zr  1,Zr  2)     53.1069         0.010000   
    778. D(Zr  3,O  10,Zr  1,Zr  2)    -87.8735         0.010000   
    779. D(Zr  2,O  11,Zr  0,Zr  3)     87.5362         0.010000   
    780. D(Zr  2,O  11,Zr  5,Zr  0)   -152.0756         0.010000   
    781. D(Zr  0,O  11,Zr  5,O   6)     24.3339         0.010000   
    782. D(Zr  0,O  11,Zr  5,Zr  2)    152.0756         0.010000   
    783. D(Zr  5,O  11,Zr  2,Zr  1)     53.1960         0.010000   
    784. D(Zr  5,O  11,Zr  0,Zr  3)    -53.5271         0.010000   
    785. D(Zr  0,O  11,Zr  2,Zr  1)    -87.7789         0.010000   
    786. D(Zr  2,O  11,Zr  0,Zr  5)    141.0633         0.010000   
    787. D(Zr  0,O  11,Zr  2,Zr  5)   -140.9749         0.010000   
    788. D(C  36,O  12,Zr  0,Zr  5)     -3.6732         0.010000   
    789. D(C  36,O  12,Zr  0,Zr  3)     45.9016         0.010000   
    790. D(C  37,O  13,Zr  0,Zr  5)    -57.2637         0.010000   
    791. D(C  37,O  13,Zr  0,Zr  3)      4.1953         0.010000   
    792. D(C  38,O  14,Zr  0,Zr  5)      2.7500         0.010000   
    793. D(C  38,O  14,Zr  0,Zr  3)    -73.1552         0.010000   
    794. D(C  39,O  15,Zr  0,Zr  5)    -16.6121         0.010000   
    795. D(C  39,O  15,Zr  0,Zr  3)    -71.3929         0.010000   
    796. D(C  40,O  16,Zr  1,Zr  4)     12.5380         0.010000   
    797. D(C  40,O  16,Zr  1,Zr  2)     69.4547         0.010000   
    798. D(C  41,O  17,Zr  1,Zr  4)     -8.3675         0.010000   
    799. D(C  41,O  17,Zr  1,Zr  2)     66.3887         0.010000   
    800. D(C  42,O  18,Zr  1,Zr  4)     56.3519         0.010000   
    801. D(C  42,O  18,Zr  1,Zr  2)     -4.0660         0.010000   
    802. D(C  43,O  19,Zr  1,Zr  4)      3.2355         0.010000   
    803. D(C  43,O  19,Zr  1,Zr  2)    -47.1018         0.010000   
    804. D(H  71,O  20,Zr  2,Zr  1)    142.0129         0.010000   
    805. D(C  44,O  20,Zr  2,Zr  5)      2.7081         0.010000   
    806. D(C  44,O  20,Zr  2,Zr  1)    -59.0940         0.010000   
    807. D(H  70,O  21,Zr  2,Zr  1)   -170.2583         0.010000   
    808. D(C  38,O  21,Zr  2,Zr  5)    -70.0352         0.010000   
    809. D(C  38,O  21,Zr  2,Zr  1)    -17.6112         0.010000   
    810. D(H  72,O  22,Zr  2,Zr  1)   -165.1370         0.010000   
    811. D(C  42,O  22,Zr  2,Zr  5)     42.6490         0.010000   
    812. D(C  42,O  22,Zr  2,Zr  1)     -7.2633         0.010000   
    813. D(H  90,O  23,Zr  2,Zr  1)   -144.7399         0.010000   
    814. D(C  45,O  23,Zr  2,Zr  5)    -68.7900         0.010000   
    815. D(C  45,O  23,Zr  2,Zr  1)      8.7049         0.010000   
    816. D(C  46,O  24,Zr  3,Zr  4)     74.3047         0.010000   
    817. D(C  46,O  24,Zr  3,Zr  0)     -2.5092         0.010000   
    818. D(C  37,O  25,Zr  3,Zr  4)    -43.4327         0.010000   
    819. D(C  37,O  25,Zr  3,Zr  0)      5.4878         0.010000   
    820. D(C  41,O  26,Zr  3,Zr  4)     71.2369         0.010000   
    821. D(C  41,O  26,Zr  3,Zr  0)     18.7992         0.010000   
    822. D(C  47,O  27,Zr  3,Zr  4)     -1.5072         0.010000   
    823. D(C  47,O  27,Zr  3,Zr  0)     60.5941         0.010000   
    824. D(C  47,O  28,Zr  4,Zr  1)     46.5932         0.010000   
    825. D(C  47,O  28,Zr  4,Zr  3)     -2.9460         0.010000   
    826. D(C  39,O  29,Zr  4,Zr  3)      5.7331         0.010000   
    827. D(C  39,O  29,Zr  4,Zr  1)    -70.2189         0.010000   
    828. D(C  43,O  30,Zr  4,Zr  3)    -60.9144         0.010000   
    829. D(C  43,O  30,Zr  4,Zr  1)      0.3997         0.010000   
    830. D(C  45,O  31,Zr  4,Zr  3)    -18.4738         0.010000   
    831. D(C  45,O  31,Zr  4,Zr  1)    -74.2361         0.010000   
    832. D(C  46,O  32,Zr  5,Zr  2)     18.7729         0.010000   
    833. D(C  46,O  32,Zr  5,Zr  0)     72.7794         0.010000   
    834. D(C  36,O  33,Zr  5,Zr  2)     59.6900         0.010000   
    835. D(C  36,O  33,Zr  5,Zr  0)     -1.9762         0.010000   
    836. D(C  40,O  34,Zr  5,Zr  0)     69.7458         0.010000   
    837. D(C  40,O  34,Zr  5,Zr  2)     -7.0785         0.010000   
    838. D(C  44,O  35,Zr  5,Zr  2)      4.3616         0.010000   
    839. D(C  44,O  35,Zr  5,Zr  0)    -45.2733         0.010000   
    840. D(H  58,C  36,O  12,Zr  0)   -176.2321         0.047229   
    841. D(O  33,C  36,O  12,Zr  0)      3.9713         0.047229   
    842. D(O  12,C  36,O  33,Zr  5)      0.1987         0.047180   
    843. D(H  58,C  36,O  33,Zr  5)   -179.5980         0.047180   
    844. D(H  51,C  37,O  25,Zr  3)    175.1036         0.047178   
    845. D(O  13,C  37,O  25,Zr  3)     -5.0721         0.047178   
    846. D(H  51,C  37,O  13,Zr  0)    177.7371         0.047104   
    847. D(O  25,C  37,O  13,Zr  0)     -2.0873         0.047104   
    848. D(H  50,C  38,O  21,Zr  2)   -166.2962         0.057410   
    849. D(O  14,C  38,O  21,H  70)    170.9314         0.057410   
    850. D(O  14,C  38,O  21,Zr  2)     13.3232         0.057410   
    851. D(H  50,C  38,O  14,Zr  0)   -148.1517         0.046807   
    852. D(O  21,C  38,O  14,Zr  0)     32.2288         0.046807   
    853. D(H  54,C  39,O  29,Zr  4)   -154.7238         0.046838   
    854. D(O  15,C  39,O  29,Zr  4)     25.4531         0.046838   
    855. D(H  54,C  39,O  15,Zr  0)   -161.1936         0.047663   
    856. D(O  29,C  39,O  15,Zr  0)     18.6295         0.047663   
    857. D(H  56,C  40,O  34,Zr  5)    155.9218         0.047027   
    858. D(O  16,C  40,O  34,Zr  5)    -24.2313         0.047027   
    859. D(H  56,C  40,O  16,Zr  1)    162.0895         0.047825   
    860. D(O  34,C  40,O  16,Zr  1)    -17.7574         0.047825   
    861. D(H  48,C  41,O  26,Zr  3)    161.4404         0.047636   
    862. D(O  17,C  41,O  26,Zr  3)    -18.4994         0.047636   
    863. D(H  48,C  41,O  17,Zr  1)    156.2767         0.046838   
    864. D(O  26,C  41,O  17,Zr  1)    -23.7836         0.046838   
    865. D(H  49,C  42,O  22,Zr  2)   -171.7786         0.052212   
    866. D(O  18,C  42,O  22,H  72)    160.1322         0.052212   
    867. D(O  18,C  42,O  22,Zr  2)      7.7411         0.052212   
    868. D(H  49,C  42,O  18,Zr  1)   -179.8479         0.047255   
    869. D(O  22,C  42,O  18,Zr  1)      0.6302         0.047255   
    870. D(H  52,C  43,O  30,Zr  4)   -178.6007         0.047194   
    871. D(O  19,C  43,O  30,Zr  4)      1.7657         0.047194   
    872. D(H  52,C  43,O  19,Zr  1)    175.9308         0.047245   
    873. D(O  30,C  43,O  19,Zr  1)     -4.4357         0.047245   
    874. D(H  59,C  44,O  35,Zr  5)    175.7540         0.047234   
    875. D(O  20,C  44,O  35,Zr  5)     -4.4522         0.047234   
    876. D(H  59,C  44,O  20,Zr  2)    179.0305         0.056889   
    877. D(O  35,C  44,O  20,H  71)    160.2644         0.056889   
    878. D(O  35,C  44,O  20,Zr  2)     -0.7633         0.056889   
    879. D(H  55,C  45,O  31,Zr  4)   -154.0151         0.052608   
    880. D(O  23,C  45,O  31,Zr  4)     25.4021         0.052608   
    881. D(H  55,C  45,O  23,Zr  2)   -162.6043         0.056394   
    882. D(O  31,C  45,O  23,H  90)    167.4685         0.056394   
    883. D(O  31,C  45,O  23,Zr  2)     17.9790         0.056394   
    884. D(H  57,C  46,O  32,Zr  5)    160.7631         0.047509   
    885. D(O  24,C  46,O  32,Zr  5)    -18.9122         0.047509   
    886. D(H  57,C  46,O  24,Zr  3)    152.0828         0.046659   
    887. D(O  32,C  46,O  24,Zr  3)    -28.2421         0.046659   
    888. D(H  53,C  47,O  28,Zr  4)   -176.9449         0.047235   
    889. D(O  27,C  47,O  28,Zr  4)      3.2355         0.047235   
    890. D(H  53,C  47,O  27,Zr  3)   -179.7676         0.047174   
    891. D(O  28,C  47,O  27,Zr  3)      0.0520         0.047174   
    892. D(H  87,H  49,C  42,O  22)    -34.5299         0.109990   
    893. D(H  87,H  49,C  42,O  18)    145.8944         0.109990   
    894. D(H  70,H  50,C  38,O  21)      8.1722         0.113126   
    895. D(H  70,H  50,C  38,O  14)   -171.5019         0.113126   
    896. D(H  88,H  55,C  45,O  31)   -119.7281         0.125042   
    897. D(H  88,H  55,C  45,O  23)     60.7716         0.125042   
    898. D(Al 65,Al 61,Al 60,Al 62)     90.3295         0.010000   
    899. D(Al 62,Al 61,Al 60,H  86)    175.5455         0.010000   
    900. D(Al 62,Al 61,Al 60,Al 63)    -22.0916         0.010000   
    901. D(Al 63,Al 62,Al 61,Al 60)     20.0972         0.010000   
    902. D(Al 60,Al 62,Al 61,H  74)    -97.0486         0.010000   
    903. D(Al 60,Al 62,Al 61,Al 65)    -90.7745         0.010000   
    904. D(Al 63,Al 62,Al 60,Al 61)   -161.5460         0.010000   
    905. D(Al 61,Al 62,Al 60,H  87)     -5.3356         0.010000   
    906. D(Al 61,Al 62,Al 60,Al 63)    161.5460         0.010000   
    907. D(Al 66,Al 63,Al 62,Al 60)     89.7553         0.010000   
    908. D(Al 60,Al 63,Al 62,Al 64)   -106.3195         0.010000   
    909. D(Al 60,Al 63,Al 62,Al 61)    -20.1358         0.010000   
    910. D(Al 66,Al 63,Al 60,Al 61)    -67.7191         0.010000   
    911. D(Al 62,Al 63,Al 60,H  86)   -175.6056         0.010000   
    912. D(Al 62,Al 63,Al 60,Al 61)     22.0655         0.010000   
    913. D(Al 66,Al 64,Al 62,Al 60)    -46.0123         0.010000   
    914. D(Al 65,Al 64,Al 62,Al 61)    -16.1811         0.010000   
    915. D(Al 65,Al 64,Al 62,Al 60)     45.9568         0.010000   
[...]
freq.     159.82  E(vib)   ...       0.39 
freq.     161.50  E(vib)   ...       0.39 
freq.     164.02  E(vib)   ...       0.39 
freq.     164.45  E(vib)   ...       0.39 
freq.     167.34  E(vib)   ...       0.39 
freq.     170.12  E(vib)   ...       0.38 
freq.     171.23  E(vib)   ...       0.38 
freq.     172.91  E(vib)   ...       0.38 
freq.     174.14  E(vib)   ...       0.38 
freq.     174.57  E(vib)   ...       0.38 
freq.     186.79  E(vib)   ...       0.37 
freq.     188.82  E(vib)   ...       0.36 
freq.     190.11  E(vib)   ...       0.36 
freq.     191.23  E(vib)   ...       0.36 
freq.     191.47  E(vib)   ...       0.36 
freq.     192.27  E(vib)   ...       0.36 
freq.     193.46  E(vib)   ...       0.36 
freq.     199.59  E(vib)   ...       0.35 
freq.     200.61  E(vib)   ...       0.35 
freq.     206.21  E(vib)   ...       0.35 
freq.     207.17  E(vib)   ...       0.34 
freq.     212.41  E(vib)   ...       0.34 
freq.     212.98  E(vib)   ...       0.34 
freq.     218.89  E(vib)   ...       0.33 
freq.     223.89  E(vib)   ...       0.33 
freq.     224.37  E(vib)   ...       0.33 
freq.     226.80  E(vib)   ...       0.33 
freq.     233.43  E(vib)   ...       0.32 
freq.     234.35  E(vib)   ...       0.32 
freq.     244.85  E(vib)   ...       0.31 
freq.     246.70  E(vib)   ...       0.31 
freq.     255.27  E(vib)   ...       0.30 
freq.     258.68  E(vib)   ...       0.30 
freq.     260.17  E(vib)   ...       0.30 
freq.     261.54  E(vib)   ...       0.30 
freq.     261.74  E(vib)   ...       0.30 
freq.     263.91  E(vib)   ...       0.29 
freq.     265.12  E(vib)   ...       0.29 
freq.     265.67  E(vib)   ...       0.29 
freq.     267.88  E(vib)   ...       0.29 
freq.     271.52  E(vib)   ...       0.29 
freq.     272.26  E(vib)   ...       0.29 
freq.     273.50  E(vib)   ...       0.29 
freq.     273.94  E(vib)   ...       0.28 
freq.     274.39  E(vib)   ...       0.28 
freq.     276.81  E(vib)   ...       0.28 
freq.     277.54  E(vib)   ...       0.28 
freq.     284.20  E(vib)   ...       0.28 
freq.     288.81  E(vib)   ...       0.27 
freq.     289.93  E(vib)   ...       0.27 
freq.     291.67  E(vib)   ...       0.27 
freq.     294.29  E(vib)   ...       0.27 
freq.     299.49  E(vib)   ...       0.26 
freq.     302.48  E(vib)   ...       0.26 
freq.     304.78  E(vib)   ...       0.26 
freq.     307.38  E(vib)   ...       0.26 
freq.     311.18  E(vib)   ...       0.26 
freq.     311.47  E(vib)   ...       0.25 
freq.     313.20  E(vib)   ...       0.25 
freq.     313.73  E(vib)   ...       0.25 
freq.     316.48  E(vib)   ...       0.25 
freq.     317.09  E(vib)   ...       0.25 
freq.     319.24  E(vib)   ...       0.25 
freq.     323.39  E(vib)   ...       0.25 
freq.     324.50  E(vib)   ...       0.24 
freq.     328.02  E(vib)   ...       0.24 
freq.     339.99  E(vib)   ...       0.23 
freq.     340.91  E(vib)   ...       0.23 
freq.     342.57  E(vib)   ...       0.23 
freq.     351.57  E(vib)   ...       0.23 
freq.     354.14  E(vib)   ...       0.22 
freq.     355.58  E(vib)   ...       0.22 
freq.     366.10  E(vib)   ...       0.22 
freq.     367.45  E(vib)   ...       0.21 
freq.     368.71  E(vib)   ...       0.21 
freq.     370.75  E(vib)   ...       0.21 
freq.     386.14  E(vib)   ...       0.20 
freq.     393.49  E(vib)   ...       0.20 
freq.     397.48  E(vib)   ...       0.20 
freq.     402.25  E(vib)   ...       0.19 
freq.     403.30  E(vib)   ...       0.19 
freq.     404.36  E(vib)   ...       0.19 
freq.     417.30  E(vib)   ...       0.18 
freq.     418.43  E(vib)   ...       0.18 
freq.     419.17  E(vib)   ...       0.18 
freq.     425.68  E(vib)   ...       0.18 
freq.     426.22  E(vib)   ...       0.18 
freq.     445.20  E(vib)   ...       0.17 
freq.     458.94  E(vib)   ...       0.16 
freq.     461.53  E(vib)   ...       0.16 
freq.     464.68  E(vib)   ...       0.16 
freq.     480.05  E(vib)   ...       0.15 
freq.     481.15  E(vib)   ...       0.15 
freq.     481.72  E(vib)   ...       0.15 
freq.     517.97  E(vib)   ...       0.13 
freq.     526.73  E(vib)   ...       0.13 
freq.     534.60  E(vib)   ...       0.13 
freq.     540.71  E(vib)   ...       0.12 
freq.     543.03  E(vib)   ...       0.12 
freq.     545.48  E(vib)   ...       0.12 
freq.     577.44  E(vib)   ...       0.11 
freq.     597.25  E(vib)   ...       0.10 
freq.     598.56  E(vib)   ...       0.10 
freq.     608.18  E(vib)   ...       0.10 
freq.     618.38  E(vib)   ...       0.09 
freq.     619.19  E(vib)   ...       0.09 
freq.     638.39  E(vib)   ...       0.09 
freq.     664.99  E(vib)   ...       0.08 
freq.     667.67  E(vib)   ...       0.08 
freq.     670.16  E(vib)   ...       0.08 
freq.     679.75  E(vib)   ...       0.08 
freq.     682.07  E(vib)   ...       0.08 
freq.     688.94  E(vib)   ...       0.07 
freq.     701.19  E(vib)   ...       0.07 
freq.     710.50  E(vib)   ...       0.07 
freq.     736.91  E(vib)   ...       0.06 
freq.     737.20  E(vib)   ...       0.06 
freq.     737.32  E(vib)   ...       0.06 
freq.     737.92  E(vib)   ...       0.06 
freq.     738.28  E(vib)   ...       0.06 
freq.     739.51  E(vib)   ...       0.06 
freq.     740.31  E(vib)   ...       0.06 
freq.     740.55  E(vib)   ...       0.06 
freq.     740.97  E(vib)   ...       0.06 
freq.     741.63  E(vib)   ...       0.06 
freq.     742.19  E(vib)   ...       0.06 
freq.     743.01  E(vib)   ...       0.06 
freq.     744.76  E(vib)   ...       0.06 
freq.     754.63  E(vib)   ...       0.06 
freq.     774.99  E(vib)   ...       0.05 
freq.     787.36  E(vib)   ...       0.05 
freq.     813.33  E(vib)   ...       0.05 
freq.     827.55  E(vib)   ...       0.04 
freq.     844.32  E(vib)   ...       0.04 
freq.     844.83  E(vib)   ...       0.04 
freq.     860.06  E(vib)   ...       0.04 
freq.     867.72  E(vib)   ...       0.04 
freq.     874.61  E(vib)   ...       0.04 
freq.     901.65  E(vib)   ...       0.03 
freq.     904.77  E(vib)   ...       0.03 
freq.     941.33  E(vib)   ...       0.03 
freq.     944.47  E(vib)   ...       0.03 
freq.     971.02  E(vib)   ...       0.03 
freq.    1000.62  E(vib)   ...       0.02 
freq.    1000.76  E(vib)   ...       0.02 
freq.    1000.83  E(vib)   ...       0.02 
freq.    1001.23  E(vib)   ...       0.02 
freq.    1002.23  E(vib)   ...       0.02 
freq.    1002.41  E(vib)   ...       0.02 
freq.    1002.62  E(vib)   ...       0.02 
freq.    1004.88  E(vib)   ...       0.02 
freq.    1005.12  E(vib)   ...       0.02 
freq.    1005.50  E(vib)   ...       0.02 
freq.    1005.84  E(vib)   ...       0.02 
freq.    1006.52  E(vib)   ...       0.02 
freq.    1015.06  E(vib)   ...       0.02 
freq.    1015.87  E(vib)   ...       0.02 
freq.    1029.34  E(vib)   ...       0.02 
freq.    1113.98  E(vib)   ...       0.01 
freq.    1348.46  E(vib)   ...       0.01 
freq.    1349.06  E(vib)   ...       0.01 
freq.    1349.21  E(vib)   ...       0.01 
freq.    1349.26  E(vib)   ...       0.01 
freq.    1350.21  E(vib)   ...       0.01 
freq.    1350.30  E(vib)   ...       0.01 
freq.    1352.46  E(vib)   ...       0.01 
freq.    1352.99  E(vib)   ...       0.01 
freq.    1353.28  E(vib)   ...       0.01 
freq.    1353.90  E(vib)   ...       0.01 
freq.    1354.23  E(vib)   ...       0.01 
freq.    1355.08  E(vib)   ...       0.01 
freq.    1358.46  E(vib)   ...       0.01 
freq.    1361.94  E(vib)   ...       0.01 
freq.    1362.00  E(vib)   ...       0.01 
freq.    1362.18  E(vib)   ...       0.01 
freq.    1364.59  E(vib)   ...       0.01 
freq.    1365.77  E(vib)   ...       0.01 
freq.    1368.75  E(vib)   ...       0.01 
freq.    1370.55  E(vib)   ...       0.01 
freq.    1371.05  E(vib)   ...       0.01 
freq.    1374.48  E(vib)   ...       0.01 
freq.    1375.12  E(vib)   ...       0.01 
freq.    1382.63  E(vib)   ...       0.01 
freq.    1545.68  E(vib)   ...       0.00 
freq.    1556.17  E(vib)   ...       0.00 
freq.    1559.75  E(vib)   ...       0.00 
freq.    1563.16  E(vib)   ...       0.00 
freq.    1565.20  E(vib)   ...       0.00 
freq.    1571.14  E(vib)   ...       0.00 
freq.    1576.53  E(vib)   ...       0.00 
freq.    1576.89  E(vib)   ...       0.00 
freq.    1603.04  E(vib)   ...       0.00 
freq.    1626.93  E(vib)   ...       0.00 
freq.    1631.11  E(vib)   ...       0.00 
freq.    1634.18  E(vib)   ...       0.00 
freq.    1636.24  E(vib)   ...       0.00 
freq.    1636.71  E(vib)   ...       0.00 
freq.    1637.31  E(vib)   ...       0.00 
freq.    1665.09  E(vib)   ...       0.00 
freq.    1685.00  E(vib)   ...       0.00 
freq.    1702.35  E(vib)   ...       0.00 
freq.    1732.74  E(vib)   ...       0.00 
freq.    1742.71  E(vib)   ...       0.00 
freq.    1787.23  E(vib)   ...       0.00 
freq.    1789.42  E(vib)   ...       0.00 
freq.    1801.41  E(vib)   ...       0.00 
freq.    1809.06  E(vib)   ...       0.00 
freq.    1811.96  E(vib)   ...       0.00 
freq.    1848.22  E(vib)   ...       0.00 
freq.    1877.47  E(vib)   ...       0.00 
freq.    1883.60  E(vib)   ...       0.00 
freq.    1884.95  E(vib)   ...       0.00 
freq.    1886.59  E(vib)   ...       0.00 
freq.    1887.34  E(vib)   ...       0.00 
freq.    1890.10  E(vib)   ...       0.00 
freq.    1899.86  E(vib)   ...       0.00 
freq.    1910.94  E(vib)   ...       0.00 
freq.    1931.97  E(vib)   ...       0.00 
freq.    1944.92  E(vib)   ...       0.00 
freq.    2876.08  E(vib)   ...       0.00 
freq.    2878.16  E(vib)   ...       0.00 
freq.    2889.60  E(vib)   ...       0.00 
freq.    2889.65  E(vib)   ...       0.00 
freq.    2890.06  E(vib)   ...       0.00 
freq.    2891.50  E(vib)   ...       0.00 
freq.    2900.41  E(vib)   ...       0.00 
freq.    2905.69  E(vib)   ...       0.00 
freq.    2908.00  E(vib)   ...       0.00 
freq.    2908.55  E(vib)   ...       0.00 
freq.    2909.06  E(vib)   ...       0.00 
freq.    2910.11  E(vib)   ...       0.00 

------------
INNER ENERGY
------------

The inner energy is: U= E(el) + E(ZPE) + E(vib) + E(rot) + E(trans)
    E(el)   - is the total energy from the electronic structure calculation
              = E(kin-el) + E(nuc-el) + E(el-el) + E(nuc-nuc)
    E(ZPE)  - the the zero temperature vibrational energy from the frequency calculation
    E(vib)  - the the finite temperature correction to E(ZPE) due to population
              of excited vibrational states
    E(rot)  - is the rotational thermal energy
    E(trans)- is the translational thermal energy

Summary of contributions to the inner energy U:
Electronic energy                ...  -4952.46994805 Eh
Zero point energy                ...      0.48401032 Eh     303.72 kcal/mol
Thermal vibrational correction   ...      0.07532883 Eh      47.27 kcal/mol
Thermal rotational correction    ...      0.00141627 Eh       0.89 kcal/mol
Thermal translational correction ...      0.00141627 Eh       0.89 kcal/mol
-----------------------------------------------------------------------
Total thermal energy                  -4951.90777635 Eh


Summary of corrections to the electronic energy:
(perhaps to be used in another calculation)
Total thermal correction                  0.07816137 Eh      49.05 kcal/mol
Non-thermal (ZPE) correction              0.48401032 Eh     303.72 kcal/mol
-----------------------------------------------------------------------
Total correction                          0.56217170 Eh     352.77 kcal/mol


--------
ENTHALPY
--------

The enthalpy is H = U + kB*T
                kB is Boltzmann's constant
Total thermal energy              ...  -4951.90777635 Eh 
Thermal Enthalpy correction       ...      0.00094421 Eh       0.59 kcal/mol
-----------------------------------------------------------------------
Total Enthalpy                    ...  -4951.90683214 Eh


Note: Only C1 symmetry has been detected, increase convergence thresholds 
      if your molecule has a higher symmetry. Symmetry factor of 1.0 is   
      used for the rotational entropy correction. 
 

Note: Rotational entropy computed according to Herzberg 
Infrared and Raman Spectra, Chapter V,1, Van Nostrand Reinhold, 1945 
Point Group:  C1, Symmetry Number:   1  
Rotational constants in cm-1:     0.001520     0.000747     0.000728 

Vibrational entropy computed according to the QRRHO of S. Grimme
Chem.Eur.J. 2012 18 9955 using a reference frequency of 100.0 cm-1


-------
ENTROPY
-------

The entropy contributions are T*S = T*(S(el)+S(vib)+S(rot)+S(trans))
     S(el)   - electronic entropy
     S(vib)  - vibrational entropy
     S(rot)  - rotational entropy
     S(trans)- translational entropy
The entropies will be listed as multiplied by the temperature to get
units of energy

Electronic entropy                ...      0.00000000 Eh      0.00 kcal/mol
Vibrational entropy               ...      0.13500609 Eh     84.72 kcal/mol
Rotational entropy                ...      0.01938362 Eh     12.16 kcal/mol
Translational entropy             ...      0.02263251 Eh     14.20 kcal/mol
-----------------------------------------------------------------------
Final entropy term                ...      0.17702222 Eh    111.08 kcal/mol

In case the symmetry of your molecule has not been determined correctly
or in case you have a reason to use a different symmetry number we print 
out the resulting rotational entropy values for sn=1,12:

 non-linear molecules -----------------------------------
|  sn= 1 | S(rot)=       0.01938362 Eh     12.16 kcal/mol|
|  sn= 2 | S(rot)=       0.01872917 Eh     11.75 kcal/mol|
|  sn= 3 | S(rot)=       0.01834634 Eh     11.51 kcal/mol|
|  sn= 4 | S(rot)=       0.01807471 Eh     11.34 kcal/mol|
|  sn= 5 | S(rot)=       0.01786402 Eh     11.21 kcal/mol|
|  sn= 6 | S(rot)=       0.01769188 Eh     11.10 kcal/mol|
|  sn= 7 | S(rot)=       0.01754633 Eh     11.01 kcal/mol|
|  sn= 8 | S(rot)=       0.01742026 Eh     10.93 kcal/mol|
|  sn= 9 | S(rot)=       0.01730905 Eh     10.86 kcal/mol|
|  sn=10 | S(rot)=       0.01720957 Eh     10.80 kcal/mol|
|  sn=11 | S(rot)=       0.01711958 Eh     10.74 kcal/mol|
|  sn=12 | S(rot)=       0.01703742 Eh     10.69 kcal/mol|
 linear molecules ---------------------------------------
|  Dinfh | S(rot)=       0.01214777 Eh      7.62 kcal/mol|
|  Cinfv | S(rot)=       0.01280223 Eh      8.03 kcal/mol|
 --------------------------------------------------------


-------------------
GIBBS FREE ENERGY
-------------------

The Gibbs free energy is G = H - T*S

Total enthalpy                    ...  -4951.90683214 Eh 
Total entropy correction          ...     -0.17702222 Eh   -111.08 kcal/mol
-----------------------------------------------------------------------
Final Gibbs free energy         ...  -4952.08385436 Eh

For completeness - the Gibbs free energy minus the electronic energy
G-E(el)                           ...      0.38609368 Eh    242.28 kcal/mol


Maximum memory used throughout the entire PROP-calculation: 176.7 MB

--------------------------------
SUGGESTED CITATIONS FOR THIS RUN
--------------------------------

Below you find a list of papers that are relevant to this ORCA run
We neither can nor want to force you to cite these papers, but we appreciate if you do
You receive ORCA, which is the product of decades of hard work by many enthusiastic individuals, for free
The only thing we kindly ask in return is that you cite our papers,
We deeply appreciate it, if you show your appreciation for ORCA by not just citing the generic ORCA reference.

Please note that relegating all ORCA citations to the supporting information does *not* help us.
SI sections are not indexed - citations you put there will not count into any citation statistics
But we need these citations in order to attract the funding resources that allow us to do what we are doing

Therefore, if you are a happy ORCA user, please consider citing a few of the papers listed below in the main body of your paper

In addition to the list printed below, the program has created the file run.bibtex that contains the list in bibtex format
You can import this file easily into all common literature databanks and citation aid programs


List of essential papers. We consider these as the minimum necessary citations

  1. Neese, F.
     Software update: the ORCA program system, version 6.0
     WIRES Comput. Molec. Sci. 2025 15(1), e70019
     doi.org/10.1002/wcms.7019

List of papers to cite with high priority. The work reported in these papers was absolutely
necessary for this run to complete.
Our perspective: the developers of density functionals and basis sets usually get cited in chemistry papers
Good! But without the algorithms to do something with them, the functionals or basis sets would not do anything.
Hence, in our opinion, the algorithm design and method developments papers are equally worthy of getting cited

  1. Neese, F.
     An improvement of the resolution of the identity approximation for the formation of the Coulomb matrix
     J. Comp. Chem. 2003 24(14), 1740-1747
     doi.org/10.1002/jcc.10318
  2. Grimme, S.; Antony, J.; Ehrlich, S.; Krieg, H.
     A consistent and accurate ab initio parametrization of density functional dispersion correction (DFT-D) for the 94 elements H-Pu
     J. Chem. Phys. 2010 132 , 154104
     doi.org/10.1063/1.3382344
  3. Grimme, S.; Ehrlich, S.; Goerigk, L.
     Effect of the damping function in dispersion corrected density functional theory
     J. Comput. Chem. 2011 32(7), 1456-1465
     doi.org/10.1002/jcc.21759
  4. Bykov, D.; Petrenko, T.; Izsak, R.; Kossmann, S.; Becker, U.; Valeev, E.; Neese, F.
     Efficient implementation of the analytic second derivatives of Hartree-Fock and hybrid DFT energies: a detailed analysis of different approximations
     Molec. Phys. 2015 113 , 1961-1977
     doi.org/10.1080/00268976.2015.1025114
  5. Helmich-Paris, B.
     A trust-region augmented Hessian implementation for restricted and unrestricted Hartree–Fock and Kohn–Sham methods
     J. Chem. Phys. 2021 154 , 164104
     doi.org/10.1063/5.0040798
  6. Neese, F.
     The SHARK Integral Generation and Digestion System
     J. Comp. Chem. 2022 44(3), 381
     doi.org/10.1002/jcc.26942

List of suggested additional citations. These are papers that are important in the 'surrounding' of 
of this run, or papers that preceded the highly important papers. If you like your results we are grateful for a citation.

  1. Neese, F.
     The ORCA program system
     WIRES Comput. Molec. Sci. 2012 2(1), 73-78
     doi.org/10.1002/wcms.81
  2. Neese, F.
     Software update: the ORCA program system, version 4.0
     WIRES Comput. Molec. Sci. 2018 8(1), 1-6
     doi.org/10.1002/wcms.1327
  3. Neese, F.; Wennmohs, F.; Becker, U.; Riplinger, C.
     The ORCA quantum chemistry program package
     J. Chem. Phys. 2020 152(22), 224108
     doi.org/10.1063/5.0004608
  4. Neese, F.
     Software update: The ORCA program system—Version 5.0
     WIRES Comput. Molec. Sci. 2022 12(1), e1606
     doi.org/10.1002/wcms.1606

List of optional additional citations

  1. Neese, F.
     Approximate second-order SCF convergence for spin unrestricted wavefunctions
     Chem. Phys. Lett. 2000 325(1-3), 93-98
     doi.org/10.1016/s0009-2614(00)00662-x

Timings for individual modules:

Sum of individual times          ...    10128.175 sec (= 168.803 min)
Startup calculation              ...      264.825 sec (=   4.414 min)   2.6 %
SCF iterations                   ...     2371.674 sec (=  39.528 min)  23.4 %
Property integrals               ...     2417.702 sec (=  40.295 min)  23.9 %
SCF Response                     ...     2218.563 sec (=  36.976 min)  21.9 %
Property calculations            ...     2082.800 sec (=  34.713 min)  20.6 %
SCF Gradient evaluation          ...      733.564 sec (=  12.226 min)   7.2 %
Geometry relaxation              ...       39.047 sec (=   0.651 min)   0.4 %
                             ****ORCA TERMINATED NORMALLY****
TOTAL RUN TIME: 0 days 2 hours 49 minutes 4 seconds 103 msec
