
                                 *****************
                                 * O   R   C   A *
                                 *****************

                                            #,                                       
                                            ###                                      
                                            ####                                     
                                            #####                                    
                                            ######                                   
                                           ########,                                 
                                     ,,################,,,,,                         
                               ,,#################################,,                 
                          ,,##########################################,,             
                       ,#########################################, ''#####,          
                    ,#############################################,,   '####,        
                  ,##################################################,,,,####,       
                ,###########''''           ''''###############################       
              ,#####''   ,,,,##########,,,,          '''####'''          '####       
            ,##' ,,,,###########################,,,                        '##       
           ' ,,###''''                  '''############,,,                           
         ,,##''                                '''############,,,,        ,,,,,,###''
      ,#''                                            '''#######################'''  
     '                                                          ''''####''''         
             ,#######,   #######,   ,#######,      ##                                
            ,#'     '#,  ##    ##  ,#'     '#,    #''#        ,####,    ,#,          
            ##       ##  ##   ,#'  ##            #'  '#       #'       ,# #          
            ##       ##  #######   ##           ,######,      #####,      #          
            '#,     ,#'  ##    ##  '#,     ,#' ,#      #,     #,   #      #          
             '#######'   ##     ##  '#######'  #'      '#     '####' #    #          



                #########################################################
                #                        -***-                          #
                #          Department of theory and spectroscopy        #
                #                                                       #
                #                      Frank Neese                      #
                #                                                       #
                #     Directorship, Architecture, Infrastructure        #
                #                    SHARK, DRIVERS                     #
                #        Core code/Algorithms in most modules           #
                #                                                       #
                #        Max Planck Institute fuer Kohlenforschung      #
                #                Kaiser Wilhelm Platz 1                 #
                #                 D-45470 Muelheim/Ruhr                 #
                #                      Germany                          #
                #                                                       #
                #                  All rights reserved                  #
                #                        -***-                          #
                #########################################################


                         Program Version 6.1.0  -  RELEASE   -
                                (GIT: $679e74b$)
                          ($2025-06-10 18:02:51 +0200$)


 With contributions from (in alphabetic order):
[Max-Planck-Institut fuer Kohlenforschung]                               
  Daniel Aravena         : Magnetic Suceptibility                        
  Michael Atanasov       : Ab Initio Ligand Field Theory (pilot matlab implementation)
  Alexander A. Auer      : GIAO ZORA, VPT2 properties, NMR spectrum      
  Ute Becker             : All parallelization in ORCA, NUMFREQ, NUMCALC 
  Giovanni Bistoni       : ED, misc. LED, open-shell LED, HFLD           
  Dmytro Bykov           : pre 5.0 version of the SCF Hessian            
  Marcos Casanova-Páez   : Triplet and SCS-CIS(D). UHF-(DLPNO)-IP/EA/STEOM-CCSD. UHF-CVS-IP/STEOM-CCSD   
  Vijay G. Chilkuri      : MRCI spin determinant printing, contributions to CSF-ICE 
  Pauline Colinet        : FMM embedding                                 
  Dipayan Datta          : RHF DLPNO-CCSD density                        
  Achintya Kumar Dutta   : EOM-CC, STEOM-CC                              
  Nicolas Foglia         : Exact transition moments, OPA infrastructure, MCD improvements    
  Dmitry Ganyushin       : Spin-Orbit,Spin-Spin,Magnetic field MRCI      
  Miquel Garcia-Rates    : C-PCM and meta-GGA Hessian, CCSD/C-PCM, Gaussian charge scheme 
  Tiago L. C. Gouveia    : GS-ROHF, GS-ROCIS                             
  Yang Guo               : DLPNO-NEVPT2, F12-NEVPT2, CIM, IAO-localization        
  Andreas Hansen         : Spin unrestricted coupled pair/coupled cluster methods 
  Ingolf Harden          : AUTO-CI MPn and infrastructure                
  Benjamin Helmich-Paris : MC-RPA, TRAH-(SCF,CASSCF), AVAS, COSX integrals, SCF dyn. polar., MC-PDFT, srDFT 
  Lee Huntington         : MR-EOM, pCC                                   
  Robert Izsak           : Overlap fitted RIJCOSX, COSX-SCS-MP3, EOM     
  Riya Kayal             : Wick's Theorem for AUTO-CI, AUTO-CI UHF-CCSDT 
  Emily Kempfer          : AUTO-CI RHF CISDT and CCSDT, approximate NEVPT4
  Christian Kollmar      : KDIIS, OOCD, Brueckner-CCSD(T), CCSD density, CASPT2, CASPT2-K, improved NEVPT2 
  Axel Koslowski         : Symmetry handling                             
  Simone Kossmann        : meta-GGA functionals, TD-DFT gradient, OOMP2, (MP2 Hessian; deprecated post 5.0) 
  Lucas Lang             : DCDCAS, Hyperfine gauge corrections, ICE-SOC+SSC
  Marvin Lechner         : AUTO-CI (C++ implementation), FIC-MRCC        
  Spencer Leger          : CASSCF response                               
  Dagmar Lenk            : GEPOL surface, SMD, ORCA-2-JSON               
  Dimitrios Liakos       : Extrapolation schemes; Compound Job, Property file
  Dimitrios Manganas     : Further ROCIS development; embedding schemes. LFT, Crystal Embedding 
  Dimitrios Pantazis     : SARC Basis sets                               
  Anastasios Papadopoulos: AUTO-CI, single reference methods and gradients 
  Taras Petrenko         : pre 6.0 DFT Hessian and TD-DFT gradient,  ECA, NRVS 
  Petra Pikulova         : Analytic Raman intensities                    
  Peter Pinski           : DLPNO-MP2, DLPNO-MP2 Gradient                 
  Shashank Vittal Rao    : ES-AILFT, MagRelax                            
  Christoph Reimann      : Effective Core Potentials                     
  Marius Retegan         : Local ZFS, SOC                                
  Christoph Riplinger    : Optimizer, TS searches, QM/MM, DLPNO-CCSD(T), (RO)-DLPNO pert. Triples 
  Michael Roemelt        : Original ROCIS implementation, recursive CI coupling coefficients
  Masaaki Saitow         : Open-shell DLPNO-CCSD energy and density      
  Barbara Sandhoefer     : DKH picture change effects                    
  Yorick L. A. Schmerwitz: GMF and freeze-and-release deltaSCF, NEB S-IDPP initial path                    
  Kantharuban Sivalingam : CASSCF convergence/infrastructure, NEVPT2, NEVPT3, NEVPT4(SD), FIC-MRCI and CEPA variants
  Bernardo de Souza      : ESD, SOC TD-DFT                               
  Georgi L. Stoychev     : AutoAux, RI-MP2 NMR, DLPNO-MP2 response, X2C  
  Van Anh Tran           : RI-MP2 g-tensors                              
  Willem Van den Heuvel  : Paramagnetic NMR                              
  Zikuan Wang            : NOTCH, Electric field optimization            
  Frank Wennmohs         : Technical directorship and infrastructure     
  Hang Xu                : AUTO-CI-Response properties                   
                                                                         
[FACCTs GmbH]                                                            
  Markus Bursch, Nicolas Foglia, Miquel Garcia-Rates, Ingolf Harden, Hagen Neugebauer, Anastasios Papadopoulos, 
  Christoph Riplinger, Bernardo de Souza, Georgi L. Stoychev                                                    
                                                                 
  APM, various basis sets, CI-OPT, improved COSX, DLPNO-Multilevel,           
  DOCKER, DRACO, updates on ESD, Fragmentator, GOAT, IRC, LR-CPCM, L-BFGS, MBIS, meta-GGA TD-DFT gradient, ML-optimized integration grids, 
  MM, NACMEs, nearIR, NEB, NEB-TS, NL-DFT gradient (VV10), 2- and 3-layer-ONIOM, interface openCOSMO-RS, QMMM,   
  Crystal-QMMM, RESP, rigid body optimization, SF, symmetry and pop. for TD-DFT, various functionals, SOLVATOR                                   
                                                                         
[Other institutions]                                                     
  V. Asgeirsson          : NEB                                           
  Christoph Bannwarth    : sTDA-DFT, sTD-DFT, PBEh-3c, B97-3c, D3        
  Giovanni Bistoni       : ETS/NOCV, ADLD/ADEX, COVALED                  
  Martin Brehm           : Molecular dynamics                            
  Ronald Cardenas        : ETS/NOCV                                      
  Martina Colucci        : COVALED                                       
  Sebastian Ehlert       : rSCAN, r2SCAN, r2SCAN-3c, D4, dhf basis sets  
  Marvin Friede          : D4 for Fr, Ra, Ac-Lr                          
  Lars Goerigk           : TD-DFT with DH, B97 family of functionals     
  Stefan Grimme          : VdW corrections, initial TS optimization, DFT functionals, gCP, sTDA/sTD-DF 
  Waldemar Hujo          : DFT-NL                                        
  H. Jonsson             : NEB                                           
  Holger Kruse           : gCP                                           
  Marcel Mueller         : wB97X-3c, vDZP basis set                      
  Hagen Neugebauer       : wr2SCAN, Native XTB                           
  Gianluca Regni         : ADLD/ADEX                                     
  Tobias Risthaus        : pre 6.0 range-separated hybrid DFT and stability analysis
  Lukas Wittmann         : regularized MP2, r2SCAN double-hybrids, wr2SCAN        
                                                                         
We gratefully acknowledge several colleagues who have allowed us to      
interface, adapt or use parts of their codes:                            
  Ed Valeev, F. Pavosevic, A. Kumar             : LibInt (2-el integral package), F12 methods 
  Garnet Chan, S. Sharma, J. Yang, R. Olivares  : DMRG                   
  Ulf Ekstrom                                   : XCFun DFT Library      
  Mihaly Kallay                                 : mrcc  (arbitrary order and MRCC methods)
  Frank Weinhold                                : gennbo (NPA and NBO analysis)           
  Simon Mueller                                 : openCOSMO-RS                            
  Christopher J. Cramer and Donald G. Truhlar   : smd solvation model                     
  S Lehtola, MJT Oliveira, MAL Marques          : LibXC Library                           
  Liviu Ungur et al                             : ANISO software                          


 Your calculation uses the libint2 library for the computation of 2-el integrals
 For citations please refer to: http://libint.valeyev.net

 Your ORCA version has been built with support for libXC version: 7.0.0
 For citations please refer to: https://libxc.gitlab.io

 This ORCA versions uses:
   CBLAS   interface :  Fast vector & matrix operations
   LAPACKE interface :  Fast linear algebra routines
   SCALAPACK package :  Parallel linear algebra routines
   Shared memory     :  Shared parallel matrices
   BLAS/LAPACK       :  OpenBLAS 0.3.29  USE64BITINT DYNAMIC_ARCH NO_AFFINITY Prescott SINGLE_THREADED
        Core in use  :  Prescott
   Copyright (c) 2011-2014, The OpenBLAS Project


  ***********************************
  * Starting time: Sat Aug 16 17:33:34 2025
  * Host name:     cuda1
  * Process ID:    268379
  * Working dir.:  /local/scratch/mehlhorn/62067
  ***********************************



***************************************
The coordinates will be read from file: start.xyz
***************************************


Your calculation utilizes the atom-pairwise dispersion correction
based on EEQ partial charges (D4)


Warning: RI is on but no J-basis has been assigned. Assigning Def2/J (nothing to worry about!)
================================================================================

----- Orbital basis set information -----
Your calculation utilizes the basis: def2-QZVP
   F. Weigend and R. Ahlrichs, Phys. Chem. Chem. Phys. 7, 3297 (2005).

----- AuxJ basis set information -----
Your calculation utilizes the auxiliary basis: def2/J
   H-Rn: F. Weigend, Phys. Chem. Chem. Phys. 8, 1057 (2006).
   Fr-Lr: K. Eichkorn, F. Weigend, O. Treutler, R. Ahlrichs; Theor. Chem. Acc. 97, 119 (1997).

================================================================================
                                        WARNINGS
                       Please study these warnings very carefully!
================================================================================


WARNING: Geometry Optimization
  ===> : Switching off AutoStart
         For restart on a previous wavefunction, please use MOREAD

================================================================================
                                       INPUT FILE
================================================================================
NAME = run.inp
|  1> # Geometry optimization for (AlH3)n cluster
|  2> 
|  3> %pal nprocs 24  end
|  4> 
|  5> %geom MaxIter 500 end
|  6> 
|  7> %elprop Polar 1 end # invoke raman
|  8> 
|  9> ! PBE0 def2-QZVP D4
| 10> ! RKS	# closed shell for AlH3
| 11> ! Freq 	# Frequency analysis to check the stabiltity of the structures
| 12> 
| 13> 
| 14> ! NoPop # population analysis not necessary	
| 15> 
| 16> ! DEFGRID3
| 17> ! ExtremeSCF
| 18> ! VeryTightOpt
| 19> 
| 20> 
| 21> ! SmallPrint
| 22> 
| 23> 
| 24> * xyzFile 0 1 start.xyz # only maingroup elements H and Al so there should be no net spin
| 25> 
| 26>                          ****END OF INPUT****
================================================================================

                       *****************************
                       * Geometry Optimization Run *
                       *****************************

Geometry optimization settings:
Update method            Update   .... BFGS
Choice of coordinates    CoordSys .... (2022) Redundant Internals
Initial Hessian          InHess   .... Almloef's Model
Max. no of cycles        MaxIter  .... 500

Convergence Tolerances:
Energy Change            TolE     ....  2.0000e-07 Eh
Max. Gradient            TolMAXG  ....  3.0000e-05 Eh/bohr
RMS Gradient             TolRMSG  ....  8.0000e-06 Eh/bohr
Max. Displacement        TolMAXD  ....  2.0000e-04 bohr
RMS Displacement         TolRMSD  ....  1.0000e-04 bohr
Strict Convergence                .... False

------------------------------------------------------------------------------
                        ORCA OPTIMIZATION COORDINATE SETUP
------------------------------------------------------------------------------

The optimization will be done in redundant internal coordinates (2022)
Making redundant internal coordinates   ...  (2022 redundants) done
Evaluating the initial hessian          ...  (Almloef) done
Evaluating the coordinates              ...  done
Calculating the B-matrix                .... done
Calculating the G-matrix                .... done
The number of degrees of freedom        ....  117

    -----------------------------------------------------------------
                    Redundant Internal Coordinates


    -----------------------------------------------------------------
         Definition                    Initial Value    Approx d2E/dq
    -----------------------------------------------------------------
      1. B(Al  1,Al  0)                  3.0622         0.065912   
      2. B(H   2,Al  1)                  1.7226         0.246991   
      3. B(H   3,Al  1)                  1.5864         0.407364   
      4. B(H   4,Al  1)                  1.7227         0.246910   
      5. B(H   4,Al  0)                  1.7220         0.247542   
      6. B(H   5,Al  0)                  1.5868         0.406758   
      7. B(H   6,Al  0)                  1.7159         0.253200   
      8. B(H   7,Al  1)                  1.5864         0.407397   
      9. B(Al  8,H   6)                  1.7159         0.253137   
     10. B(Al  8,H   2)                  1.7220         0.247556   
     11. B(Al  8,Al  1)                  3.0659         0.065020   
     12. B(Al  8,Al  0)                  3.0732         0.063297   
     13. B(H   9,Al  8)                  1.5868         0.406762   
     14. B(H  10,Al  8)                  1.5874         0.405873   
     15. B(H  11,Al  0)                  1.5875         0.405806   
     16. A(H   4,Al  0,H   6)           98.0851         0.327835   
     17. A(Al  1,Al  0,H   4)           27.2634         0.303830   
     18. A(Al  1,Al  0,Al  8)           59.9608         0.281458   
     19. A(Al  8,Al  0,H  11)          103.5673         0.327070   
     20. A(H   4,Al  0,H   5)          104.4110         0.354886   
     21. A(H   6,Al  0,H  11)          106.7661         0.356107   
     22. A(Al  1,Al  0,H   5)          131.5048         0.329389   
     23. A(Al  1,Al  0,H  11)           88.7869         0.329261   
     24. A(H   5,Al  0,H  11)          128.8787         0.386360   
     25. A(H   5,Al  0,H   6)          105.8828         0.356249   
     26. A(H   4,Al  0,Al  8)           74.2358         0.301871   
     27. A(Al  1,Al  0,H   6)           86.3833         0.304932   
     28. A(H   5,Al  0,Al  8)          122.5105         0.327197   
     29. A(H   4,Al  0,H  11)          108.6349         0.354745   
     30. A(H   6,Al  0,Al  8)           26.4256         0.302963   
     31. A(H   2,Al  1,H   7)          104.7658         0.354846   
     32. A(H   3,Al  1,H   4)          104.7603         0.354821   
     33. A(Al  0,Al  1,H   3)          127.3478         0.329470   
     34. A(H   2,Al  1,H   4)           95.8450         0.326359   
     35. A(H   4,Al  1,Al  8)           74.4431         0.303045   
     36. A(H   3,Al  1,Al  8)           98.6375         0.328730   
     37. A(H   2,Al  1,H   3)          109.3937         0.354841   
     38. A(H   2,Al  1,Al  8)           27.1138         0.303061   
     39. A(Al  0,Al  1,Al  8)           60.1979         0.282632   
     40. A(H   7,Al  1,Al  8)          127.3487         0.328734   
     41. A(Al  0,Al  1,H   4)           27.2515         0.303706   
     42. A(H   4,Al  1,H   7)          109.3862         0.354826   
     43. A(Al  0,Al  1,H   7)           98.7251         0.329474   
     44. A(Al  0,Al  1,H   2)           74.2291         0.303722   
     45. A(H   3,Al  1,H   7)          128.0682         0.386724   
     46. A(Al  1,H   2,Al  8)          125.7617         0.326500   
     47. A(Al  0,H   4,Al  1)          125.4851         0.326479   
     48. A(Al  0,H   6,Al  8)          127.1500         0.329046   
     49. A(Al  1,Al  8,H   2)           27.1244         0.303172   
     50. A(Al  0,Al  8,H   2)           73.9129         0.301874   
     51. A(Al  0,Al  8,Al  1)           59.8412         0.280866   
     52. A(H   6,Al  8,H  10)          106.6748         0.356102   
     53. A(H   2,Al  8,H  10)          108.6589         0.354758   
     54. A(Al  1,Al  8,H  10)           89.0497         0.328531   
     55. A(Al  0,Al  8,H  10)          104.3239         0.327079   
     56. A(H   6,Al  8,H   9)          105.9660         0.356234   
     57. A(H   9,Al  8,H  10)          128.8696         0.386372   
     58. A(H   2,Al  8,H   9)          104.3829         0.354890   
     59. A(Al  1,Al  8,H   9)          131.3129         0.328649   
     60. A(Al  0,Al  8,H   9)          121.8776         0.327197   
     61. A(H   2,Al  8,H   6)           98.1226         0.327825   
     62. A(Al  1,Al  8,H   6)           86.2626         0.304255   
     63. A(Al  0,Al  8,H   6)           26.4245         0.302951   
     64. D(H   2,Al  1,Al  0,H   4)   -141.2078         0.010000   
     65. D(H   3,Al  1,Al  0,H   6)     76.9003         0.010000   
     66. D(H   3,Al  1,Al  0,H   5)    -31.1727         0.010000   
     67. D(H   3,Al  1,Al  0,Al  8)     77.3281         0.010000   
     68. D(H   2,Al  1,Al  0,Al  8)    -25.2939         0.010000   
     69. D(H   3,Al  1,Al  0,H   4)    -38.5858         0.010000   
     70. D(H   2,Al  1,Al  0,H   6)    -25.7217         0.010000   
     71. D(H   2,Al  1,Al  0,H   5)   -133.7947         0.010000   
     72. D(H   2,Al  1,Al  0,H  11)     81.1628         0.010000   
     73. D(H   3,Al  1,Al  0,H  11)   -176.2152         0.010000   
     74. D(Al  8,H   2,Al  1,H   7)    149.5196         0.010000   
     75. D(Al  8,H   2,Al  1,H   3)    -70.2339         0.010000   
     76. D(Al  8,H   2,Al  1,Al  0)     54.4382         0.010000   
     77. D(Al  8,H   2,Al  1,H   4)     37.6777         0.010000   
     78. D(Al  1,H   4,Al  0,H   5)   -174.2745         0.010000   
     79. D(Al  0,H   4,Al  1,H   7)    -70.6105         0.010000   
     80. D(Al  0,H   4,Al  1,Al  8)     54.1134         0.010000   
     81. D(Al  0,H   4,Al  1,H   3)    149.1542         0.010000   
     82. D(Al  0,H   4,Al  1,H   2)     37.3055         0.010000   
     83. D(Al  1,H   4,Al  0,H  11)     45.3204         0.010000   
     84. D(Al  1,H   4,Al  0,Al  8)    -54.0053         0.010000   
     85. D(Al  1,H   4,Al  0,H   6)    -65.4966         0.010000   
     86. D(Al  8,H   6,Al  0,H   4)     25.5189         0.010000   
     87. D(Al  8,H   6,Al  0,Al  1)      0.8321         0.010000   
     88. D(Al  8,H   6,Al  0,H   5)    133.0829         0.010000   
     89. D(Al  8,H   6,Al  0,H  11)    -86.8068         0.010000   
     90. D(Al  1,Al  8,Al  0,H  11)    -80.5199         0.010000   
     91. D(Al  1,Al  8,Al  0,H   6)    179.0407         0.010000   
     92. D(Al  1,Al  8,Al  0,H   5)    122.6300         0.010000   
     93. D(H   2,Al  8,Al  0,Al  1)     25.3464         0.010000   
     94. D(Al  1,Al  8,Al  0,H   4)     25.3487         0.010000   
     95. D(H   9,Al  8,H   6,Al  0)    131.1921         0.010000   
     96. D(H   2,Al  8,H   6,Al  0)     23.6252         0.010000   
     97. D(Al  1,Al  8,H   6,Al  0)     -0.8312         0.010000   
     98. D(H  10,Al  8,H   2,Al  1)     45.7658         0.010000   
     99. D(H   9,Al  8,H   2,Al  1)   -173.8452         0.010000   
    100. D(H   6,Al  8,H   2,Al  1)    -64.9738         0.010000   
    101. D(H   6,Al  8,Al  1,H   2)    115.9815         0.010000   
    102. D(H   6,Al  8,Al  1,Al  0)      0.4278         0.010000   
    103. D(H   2,Al  8,Al  1,H   7)    -38.0976         0.010000   
    104. D(H   2,Al  8,Al  1,H   4)   -140.8639         0.010000   
    105. D(H   2,Al  8,Al  1,H   3)    116.1210         0.010000   
    106. D(H   2,Al  8,Al  1,Al  0)   -115.5537         0.010000   
    107. D(Al  0,Al  8,Al  1,H   7)     77.4561         0.010000   
    108. D(Al  0,Al  8,Al  1,H   4)    -25.3102         0.010000   
    109. D(Al  0,Al  8,H   2,Al  1)    -54.2771         0.010000   
    110. D(Al  0,Al  8,Al  1,H   3)   -128.3254         0.010000   
    111. D(Al  0,Al  8,Al  1,H   2)    115.5537         0.010000   
    112. D(H   6,Al  8,Al  0,Al  1)   -179.0407         0.010000   
    113. D(H   2,Al  8,Al  0,H  11)    -55.1734         0.010000   
    114. D(H   2,Al  8,Al  0,H   6)   -155.6129         0.010000   
    115. D(H   2,Al  8,Al  0,H   5)    147.9764         0.010000   
    116. D(H  10,Al  8,H   6,Al  0)    -88.7155         0.010000   
    117. D(H   2,Al  8,Al  0,H   4)     50.6951         0.010000   
    -----------------------------------------------------------------

Number of atoms                         .... 12
Number of degrees of freedom            .... 117


         *************************************************************
         *                GEOMETRY OPTIMIZATION CYCLE   1            *
         *************************************************************
---------------------------------
CARTESIAN COORDINATES (ANGSTROEM)
---------------------------------
  Al    -0.229465    1.518719    2.565333
  Al     0.000121   -0.000507   -0.083536
  H      0.872783   -0.936113    1.069964
  H     -1.104267   -0.908414   -0.771134
  H     -0.863230    0.941627    1.071787
  H     -1.473542    2.184480    3.291334
  H      0.004056    0.000973    3.330927
  H      1.098729    0.903679   -0.785103
  Al     0.255690   -1.515992    2.569382
  H      1.513180   -2.162656    3.289507
  H     -1.180669   -2.143678    2.318759
  H      1.213553    2.126193    2.303140

----------------------------
CARTESIAN COORDINATES (A.U.)
----------------------------
  NO LB      ZA    FRAG     MASS         X           Y           Z
   0 Al   13.0000    0    26.982   -0.433626    2.869962    4.847776
   1 Al   13.0000    0    26.982    0.000229   -0.000959   -0.157861
   2 H     1.0000    0     1.008    1.649321   -1.768997    2.021939
   3 H     1.0000    0     1.008   -2.086762   -1.716654   -1.457233
   4 H     1.0000    0     1.008   -1.631268    1.779418    2.025385
   5 H     1.0000    0     1.008   -2.784590    4.128070    6.219720
   6 H     1.0000    0     1.008    0.007665    0.001839    6.294540
   7 H     1.0000    0     1.008    2.076297    1.707705   -1.483630
   8 Al   13.0000    0    26.982    0.483184   -2.864810    4.855428
   9 H     1.0000    0     1.008    2.859496   -4.086827    6.216267
  10 H     1.0000    0     1.008   -2.231141   -4.050964    4.381820
  11 H     1.0000    0     1.008    2.293282    4.017922    4.352305

--------------------------------
INTERNAL COORDINATES (ANGSTROEM)
--------------------------------
 Al     0   0   0     0.000000000000     0.00000000     0.00000000
 Al     1   0   0     3.062231852220     0.00000000     0.00000000
 H      2   1   0     1.722631792243    74.22913359     0.00000000
 H      2   1   3     1.586429302671   127.34776376   102.62200927
 H      1   2   3     1.722024901215    27.26343208   218.79222111
 H      1   2   3     1.586834590663   131.50484193   226.20526448
 H      1   2   3     1.715872586925    86.38332633   334.27831826
 H      2   1   3     1.586407342652    98.72509446   257.02087331
 Al     7   1   2     1.715941375183   127.14995378     0.83209086
 H      9   7   1     1.586832060228   105.96604999   131.19212961
 H      9   7   1     1.587427891101   106.67476505   271.28446731
 H      1   2   3     1.587472406968    88.78687095    81.16283218

---------------------------
INTERNAL COORDINATES (A.U.)
---------------------------
 Al     0   0   0     0.000000000000     0.00000000     0.00000000
 Al     1   0   0     5.786779559266     0.00000000     0.00000000
 H      2   1   0     3.255302316926    74.22913359     0.00000000
 H      2   1   3     2.997916912876   127.34776376   102.62200927
 H      1   2   3     3.254155459090    27.26343208   218.79222111
 H      1   2   3     2.998682796186   131.50484193   226.20526448
 H      1   2   3     3.242529269992    86.38332633   334.27831826
 H      2   1   3     2.997875414453    98.72509446   257.02087331
 Al     7   1   2     3.242659260960   127.14995378     0.83209086
 H      9   7   1     2.998678014358   105.96604999   131.19212961
 H      9   7   1     2.999803971529   106.67476505   271.28446731
 H      1   2   3     2.999888094326    88.78687095    81.16283218

---------------------
BASIS SET INFORMATION
---------------------
There are 2 groups of distinct atoms

 Group   1 Type Al  : 20s14p4d2f1g contracted to 9s6p4d2f1g pattern {1031111111/821111/1111/11/1}
 Group   2 Type H   : 7s3p2d1f contracted to 4s3p2d1f pattern {4111/111/11/1}

Atom   0Al   basis set group =>   1
Atom   1Al   basis set group =>   1
Atom   2H    basis set group =>   2
Atom   3H    basis set group =>   2
Atom   4H    basis set group =>   2
Atom   5H    basis set group =>   2
Atom   6H    basis set group =>   2
Atom   7H    basis set group =>   2
Atom   8Al   basis set group =>   1
Atom   9H    basis set group =>   2
Atom  10H    basis set group =>   2
Atom  11H    basis set group =>   2
---------------------------------
AUXILIARY/J BASIS SET INFORMATION
---------------------------------
There are 2 groups of distinct atoms

 Group   1 Type Al  : 14s5p5d2f1g contracted to 8s4p3d1f1g pattern {71111111/2111/311/2/1}
 Group   2 Type H   : 5s2p1d contracted to 3s1p1d pattern {311/2/1}

Atom   0Al   basis set group =>   1
Atom   1Al   basis set group =>   1
Atom   2H    basis set group =>   2
Atom   3H    basis set group =>   2
Atom   4H    basis set group =>   2
Atom   5H    basis set group =>   2
Atom   6H    basis set group =>   2
Atom   7H    basis set group =>   2
Atom   8Al   basis set group =>   1
Atom   9H    basis set group =>   2
Atom  10H    basis set group =>   2
Atom  11H    basis set group =>   2


           ************************************************************
           *        Program running with 24 parallel MPI-processes    *
           *              working on a common directory               *
           ************************************************************
------------------------------------------------------------------------------
                             ORCA STARTUP CALCULATIONS
                           -- RI-GTO INTEGRALS CHOSEN --
------------------------------------------------------------------------------
------------------------------------------------------------------------------
                   ___                                                        
                  /   \      - P O W E R E D   B Y -                         
                 /     \                                                     
                 |  |  |   _    _      __       _____    __    __             
                 |  |  |  | |  | |    /  \     |  _  \  |  |  /  |          
                  \  \/   | |  | |   /    \    | | | |  |  | /  /          
                 / \  \   | |__| |  /  /\  \   | |_| |  |  |/  /          
                |  |  |   |  __  | /  /__\  \  |    /   |      \           
                |  |  |   | |  | | |   __   |  |    \   |  |\   \          
                \     /   | |  | | |  |  |  |  | |\  \  |  | \   \       
                 \___/    |_|  |_| |__|  |__|  |_| \__\ |__|  \__/        
                                                                              
                      - O R C A' S   B I G   F R I E N D -                    
                                      &                                       
                       - I N T E G R A L  F E E D E R -                       
                                                                              
 v1 FN, 2020, v2 2021, v3 2022-2024                                           
------------------------------------------------------------------------------


----------------------
SHARK INTEGRAL PACKAGE
----------------------

Number of atoms                             ...     12
Number of basis functions                   ...    480
Number of shells                            ...    156
Maximum angular momentum                    ...      4
Integral batch strategy                     ... SHARK/LIBINT Hybrid
RI-J (if used) integral strategy            ... SPLIT-RIJ (Revised 2003 algorithm where possible)
Printlevel                                  ...      1
Contraction scheme used                     ... SEGMENTED contraction
Prescreening option                         ... SCHWARTZ
   Thresh                                   ... 3.000e-16
   Tcut                                     ... 3.000e-16
   Tpresel                                  ... 3.000e-16 
Coulomb Range Separation                    ... NOT USED
Exchange Range Separation                   ... NOT USED
Multipole approximations                    ... NOT USED
Finite Nucleus Model                        ... NOT USED
CABS basis                                  ... NOT available
Auxiliary Coulomb fitting basis             ... AVAILABLE
   # of basis functions in Aux-J            ...    252
   # of shells in Aux-J                     ...     96
   Maximum angular momentum in Aux-J        ...      4
Auxiliary J/K fitting basis                 ... NOT available
Auxiliary Correlation fitting basis         ... NOT available
Auxiliary 'external' fitting basis          ... NOT available

Checking pre-screening integrals            ... done (  0.0 sec) Dimension = 156
   => SHARK Basis and OBASIS are compatible. Storing Pre-screening
Shell pair information
Shell pair cut-off parameter TPreSel        ...   3.0e-16
Total number of shell pairs                 ...     12246
Shell pairs after pre-screening             ...     11186
Total number of primitive shell pairs       ...     29205
Primitive shell pairs kept                  ...     21383
          la=0 lb=0:   1814 shell pairs
          la=1 lb=0:   2579 shell pairs
          la=1 lb=1:    967 shell pairs
          la=2 lb=0:   1699 shell pairs
          la=2 lb=1:   1245 shell pairs
          la=2 lb=2:    425 shell pairs
          la=3 lb=0:    849 shell pairs
          la=3 lb=1:    623 shell pairs
          la=3 lb=2:    414 shell pairs
          la=3 lb=3:    106 shell pairs
          la=4 lb=0:    189 shell pairs
          la=4 lb=1:    135 shell pairs
          la=4 lb=2:     90 shell pairs
          la=4 lb=3:     45 shell pairs
          la=4 lb=4:      6 shell pairs

Checking whether 4 symmetric matrices of dimension 480 fit in memory
:Max Core in MB      =   4096.00
 MB in use           =     17.25
 MB left             =   4078.75
 MB needed           =      3.52
 Data fit in memory  = YES
Calculating RI/J V-Matrix + Cholesky decomp.... done (  0.2 sec)
Calculating Nuclear repulsion               ... done (  0.0 sec) ENN=    170.928148442860 Eh

Diagonalization of the overlap matrix:
Smallest eigenvalue                        ... 1.614e-04
Time for diagonalization                   ...    0.201 sec
Threshold for overlap eigenvalues          ... 1.000e-07
Number of eigenvalues below threshold      ... 0
Time for construction of square roots      ...    0.077 sec
Total time needed                          ...    0.289 sec

-------------------
DFT GRID GENERATION
-------------------

General Integration Accuracy     IntAcc      ... 4.959
Radial Grid Type                 RadialGrid  ... OptM3 with GC (2021)
Angular Grid (max. ang.)         AngularGrid ... 6 (Lebedev-590)
Angular grid pruning method      GridPruning ... 4 (adaptive)
Weight generation scheme         WeightScheme... mBecke (2022)
Basis function cutoff            BFCut       ... 3.0000e-16
Integration weight cutoff        WCut        ... 1.0000e-14
Partially contracted basis set               ... off
Rotationally invariant grid construction     ... off
Angular grids for H and He will be reduced by one unit

Total number of grid points                  ...   128059
Total number of batches                      ...     2007
Average number of points per batch           ...       63
Average number of grid points per atom       ...    10672

--------------------
COSX GRID GENERATION
--------------------

GRIDX 1
-------
General Integration Accuracy     IntAcc      ... 4.020
Radial Grid Type                 RadialGrid  ... OptM3 with GC (2021)
Angular Grid (max. ang.)         AngularGrid ... 2 (Lebedev-110)
Angular grid pruning method      GridPruning ... 4 (adaptive)
Weight generation scheme         WeightScheme... mBecke (2022)
Basis function cutoff            BFCut       ... 3.0000e-16
Integration weight cutoff        WCut        ... 1.0000e-14
Partially contracted basis set               ... on
Rotationally invariant grid construction     ... off
Angular grids for H and He will be reduced by one unit

Total number of grid points                  ...    12853
Total number of batches                      ...      106
Average number of points per batch           ...      121
Average number of grid points per atom       ...     1071
UseSFitting                                  ... on

GRIDX 2
-------
General Integration Accuracy     IntAcc      ... 4.338
Radial Grid Type                 RadialGrid  ... OptM3 with GC (2021)
Angular Grid (max. ang.)         AngularGrid ... 3 (Lebedev-194)
Angular grid pruning method      GridPruning ... 4 (adaptive)
Weight generation scheme         WeightScheme... mBecke (2022)
Basis function cutoff            BFCut       ... 3.0000e-16
Integration weight cutoff        WCut        ... 1.0000e-14
Partially contracted basis set               ... on
Rotationally invariant grid construction     ... off
Angular grids for H and He will be reduced by one unit

Total number of grid points                  ...    29704
Total number of batches                      ...      238
Average number of points per batch           ...      124
Average number of grid points per atom       ...     2475
UseSFitting                                  ... on

GRIDX 3
-------
General Integration Accuracy     IntAcc      ... 4.871
Radial Grid Type                 RadialGrid  ... OptM3 with GC (2021)
Angular Grid (max. ang.)         AngularGrid ... 4 (Lebedev-302)
Angular grid pruning method      GridPruning ... 4 (adaptive)
Weight generation scheme         WeightScheme... mBecke (2022)
Basis function cutoff            BFCut       ... 3.0000e-16
Integration weight cutoff        WCut        ... 1.0000e-14
Partially contracted basis set               ... on
Rotationally invariant grid construction     ... off
Angular grids for H and He will be reduced by one unit

Total number of grid points                  ...    59622
Total number of batches                      ...      469
Average number of points per batch           ...      127
Average number of grid points per atom       ...     4968
UseSFitting                                  ... on
Grids setup in   4.3 sec
Initializing property integral containers    ... done (  0.0 sec)

SHARK setup successfully completed in   6.4 seconds

Maximum memory used throughout the entire STARTUP-calculation: 40.2 MB


           ************************************************************
           *        Program running with 24 parallel MPI-processes    *
           *              working on a common directory               *
           ************************************************************
-------------------------------------------------------------------------------
                                 ORCA GUESS
                   Start orbitals & Density for SCF / CASSCF
-------------------------------------------------------------------------------

------------
SCF SETTINGS
------------
Hamiltonian:
 Density Functional     Method          .... DFT(GTOs)
 Exchange Functional    Exchange        .... PBE
   PBE kappa parameter   XKappa         ....  0.804000
   PBE mue parameter    XMuePBE         ....  0.219520
 Correlation Functional Correlation     .... PBE
   PBE beta parameter  CBetaPBE         ....  0.066725
 LDA part of GGA corr.  LDAOpt          .... PW91-LDA
 Gradients option       PostSCFGGA      .... off
 Hybrid DFT is turned on
   Fraction HF Exchange ScalHFX         ....  0.250000
   Scaling of DF-GGA-X  ScalDFX         ....  0.750000
   Scaling of DF-GGA-C  ScalDFC         ....  1.000000
   Scaling of DF-LDA-C  ScalLDAC        ....  1.000000
   Perturbative correction              ....  0.000000
   NL short-range parameter             ....  6.900000
 RI-approximation to the Coulomb term is turned on
   Number of AuxJ basis functions       .... 252
   RIJ-COSX (HFX calculated with COS-X)).... on


General Settings:
 Integral files         IntName         .... run
 Hartree-Fock type      HFTyp           .... RHF
 Total Charge           Charge          ....    0
 Multiplicity           Mult            ....    1
 Number of Electrons    NEL             ....   48
 Basis Dimension        Dim             ....  480
 Nuclear Repulsion      ENuc            ....    170.9281484429 Eh

Convergence Acceleration:
 AO-DIIS                CNVDIIS         .... on
   Start iteration      DIISMaxIt       ....    12
   Startup error        DIISStart       ....  0.200000
   # of expansion vecs  DIISMaxEq       ....     5
   Bias factor          DIISBfac        ....   1.050
   Max. coefficient     DIISMaxC        ....  10.000
 MO-DIIS                CNVKDIIS        .... off
 Trust-Rad. Augm. Hess. CNVTRAH         .... auto
   Auto Start mean grad. ratio tolernc. ....  1.125000
   Auto Start start iteration           ....    50
   Auto Start num. interpolation iter.  ....    10
   Max. Number of Micro iterations      ....    24
   Max. Number of Macro iterations      .... Maxiter - #DIIS iter
   Number of Davidson start vectors     ....     2
   Converg. threshold    (grad. norm)   ....   1.000e-09
   Grad. Scal. Fac. for Micro threshold ....   0.100
   Minimum threshold for Micro iter.    ....   1.000e-02
   NR start threshold (gradient norm)   ....   1.000e-04
   Initial trust radius                 ....   0.400
   Minimum AH scaling param. (alpha)    ....   1.000
   Maximum AH scaling param. (alpha)    .... 1000.000
   Quad. conv. algorithm                .... NR
   White noise on init. David. guess    .... on
   Maximum white noise                  ....   0.010
   Pseudo random numbers                .... off
   Inactive MOs                         .... canonical
   Orbital update algorithm             .... Taylor
   Preconditioner                       .... Diag
   Full preconditioner red. dimension   ....   250
 SOSCF                 CNVSOSCF           .... on
   Start iteration     SOSCFMaxIt         ....   150
   Startup grad/error  SOSCFStart         ....  0.003300
   Hessian update      SOSCFHessUp        .... L-BFGS
   Autom. constraints  SOSCFAutoConstrain .... off
 Level Shifting         CNVShift        .... on
   Level shift para.    LevelShift      ....    0.2500
   Turn off err/grad.   ShiftErr        ....    0.0010
 Zerner damping         CNVZerner       .... off
 Static damping         CNVDamp         .... on
   Fraction old density DampFac         ....    0.7000
   Max. Damping (<1)    DampMax         ....    0.9800
   Min. Damping (>=0)   DampMin         ....    0.0000
   Turn off err/grad.   DampErr         ....    0.1000

SCF Procedure:
 Maximum # iterations   MaxIter         ....   125
 SCF integral mode      SCFMode         .... Direct
   Integral package                     .... SHARK and LIBINT hybrid scheme
 Reset frequency        DirectResetFreq ....    20
 Integral Threshold     Thresh          ....  3.000e-16 Eh
 Primitive CutOff       TCut            ....  3.000e-16 Eh

Convergence Tolerance:
 Convergence Check Mode ConvCheckMode   .... All-Criteria
 Convergence forced     ConvForced      .... 0
 Energy Change          TolE            ....  1.000e-14 Eh
 Max Density Change     TolMaxP         ....  1.000e-14
 RMS Density Change     TolRMSP         ....  1.000e-14
 Orbital Gradient       TolG            ....  1.000e-09
 Orbital Rotation angle TolX            ....  1.000e-09
 DIIS Error             TolErr          ....  1.000e-14

------------------------------
INITIAL GUESS: MODEL POTENTIAL
------------------------------
Loading Hartree-Fock densities                     ... done
Calculating cut-offs                               ... done
Initializing the effective Hamiltonian             ... done
Setting up the integral package (SHARK)            ... done
Starting the Coulomb interaction                   ... done (   0.4 sec)
Making the grid                                    ... done (   0.1 sec)
Mapping shells                                     ... done
Starting the XC term evaluation                    ... done (   0.1 sec)
  promolecular density results
     # of electrons  =     47.996250833
     EX              =    -56.692866780
     EC              =     -1.650777587
     EX+EC           =    -58.343644367
Transforming the Hamiltonian                       ... done (   0.1 sec)
Diagonalizing the Hamiltonian                      ... done (   0.2 sec)
Back transforming the eigenvectors                 ... done (   0.1 sec)
Now organizing SCF variables                       ... done
                      ------------------
                      INITIAL GUESS DONE (   1.1 sec)
                      ------------------
             **** ENERGY FILE WAS UPDATED (run.en.tmp) ****
Finished Guess after   1.9 sec
Maximum memory used throughout the entire GUESS-calculation: 26.8 MB


           ************************************************************
           *        Program running with 24 parallel MPI-processes    *
           *              working on a common directory               *
           ************************************************************

-------------------------------------------------------------------------------------------
                                      ORCA LEAN-SCF
                              memory conserving SCF solver
-------------------------------------------------------------------------------------------

----------------------------------------D-I-I-S--------------------------------------------
Iteration    Energy (Eh)           Delta-E    RMSDP     MaxDP     DIISErr   Damp  Time(sec)
-------------------------------------------------------------------------------------------
               ***  Starting incremental Fock matrix formation  ***
    1    -732.3213542593650800     0.00e+00  1.06e-03  1.05e-02  9.12e-02  0.700   6.4
    2    -732.3341108762788281    -1.28e-02  9.12e-04  8.60e-03  6.41e-02  0.700   3.7
                               ***Turning on AO-DIIS***
    3    -732.3428478632508813    -8.74e-03  6.34e-04  5.59e-03  4.19e-02  0.700   3.3
    4    -732.3485487045918489    -5.70e-03  1.45e-03  1.33e-02  2.87e-02  0.000   3.3
                              *** Initializing SOSCF ***
---------------------------------------S-O-S-C-F--------------------------------------
Iteration    Energy (Eh)           Delta-E    RMSDP     MaxDP     MaxGrad    Time(sec)
--------------------------------------------------------------------------------------
    5    -732.3609275761975823    -1.24e-02  6.38e-05  5.87e-04  1.06e-03     3.7
               *** Restarting incremental Fock matrix formation ***
    6    -732.3609356398790169    -8.06e-06  3.72e-05  2.92e-04  1.74e-04     5.0
    7    -732.3609362745464750    -6.35e-07  8.63e-06  1.09e-04  9.14e-05     4.7
    8    -732.3609364582309809    -1.84e-07  1.62e-06  1.27e-05  6.55e-06     4.5
    9    -732.3609364601472862    -1.92e-09  4.32e-07  5.30e-06  4.61e-06     4.4
   10    -732.3609364607486896    -6.01e-10  6.21e-08  4.98e-07  3.49e-07     4.3
   11    -732.3609364607593761    -1.07e-11  1.76e-08  1.59e-07  9.52e-08     4.1
   12    -732.3609364607586940     6.82e-13  3.09e-09  2.95e-08  8.63e-09     3.9
   13    -732.3609364607566476     2.05e-12  1.16e-09  1.81e-08  3.38e-09     3.8
   14    -732.3609364607571024    -4.55e-13  2.71e-10  2.44e-09  1.05e-09     3.6
   15    -732.3609364607555108     1.59e-12  0.00e+00  0.00e+00  9.93e-10     3.3
                           ***RMSP convergence achieved***
                           ***MAXP convergence achieved***
                       ***Gradient convergence achieved***
                    ***Orbital Rotation convergence achieved***
   16    -732.3609364607555108     0.00e+00  0.00e+00  0.00e+00  9.93e-10     1.4
                          ***Energy convergence achieved***

               *****************************************************
               *                     SUCCESS                       *
               *           SCF CONVERGED AFTER  16 CYCLES          *
               *****************************************************

Recomputing exchange energy using gridx3       ... done (    6.533 sec)
Old exchange energy                            :    -14.384779921 Eh
New exchange energy                            :    -14.384777058 Eh
Exchange energy change after final integration :      0.000002863 Eh
Total energy after final integration           :   -732.360933598 Eh
             **** ENERGY FILE WAS UPDATED (run.en.tmp) ****

----------------
TOTAL SCF ENERGY
----------------

Total Energy       :       -732.36093359775998 Eh          -19928.55415 eV

Components:
Nuclear Repulsion  :        170.92814844286016 Eh            4651.19138 eV
Electronic Energy  :       -903.28908490361550 Eh          -24579.74561 eV
One Electron Energy:      -1356.95192862836279 Eh          -36924.53919 eV
Two Electron Energy:        453.66284372474723 Eh           12344.79357 eV

Virial components:
Potential Energy   :      -1463.03223618849734 Eh          -39811.13111 eV
Kinetic Energy     :        730.67130259073724 Eh           19882.57695 eV
Virial Ratio       :          2.00231243652383

DFT components:
N(Alpha)           :       24.000002649916 electrons
N(Beta)            :       24.000002649916 electrons
N(Total)           :       48.000005299831 electrons
E(X)               :      -42.891624840121 Eh       
E(C)               :       -1.634491458958 Eh       
E(XC)              :      -44.526116299079 Eh       

---------------
SCF CONVERGENCE
---------------

  Last Energy change         ...    0.0000e+00  Tolerance :   1.0000e-14
  Last MAX-Density change    ...    0.0000e+00  Tolerance :   1.0000e-14
  Last RMS-Density change    ...    0.0000e+00  Tolerance :   1.0000e-14
  Last DIIS Error            ...    1.0583e-03  Tolerance :   1.0000e-14
  Last Orbital Gradient      ...    9.9301e-10  Tolerance :   1.0000e-09
  Last Orbital Rotation      ...    0.0000e+00  Tolerance :   1.0000e-09


----------------
ORBITAL ENERGIES
----------------

  NO   OCC          E(Eh)            E(eV) 
   0   2.0000     -56.164180     -1528.3050 
   1   2.0000     -56.164164     -1528.3046 
   2   2.0000     -56.163068     -1528.2748 
   3   2.0000      -4.191191      -114.0481 
   4   2.0000      -4.191165      -114.0474 
   5   2.0000      -4.190022      -114.0163 
   6   2.0000      -2.723735       -74.1166 
   7   2.0000      -2.723695       -74.1155 
   8   2.0000      -2.722783       -74.0907 
   9   2.0000      -2.721837       -74.0650 
  10   2.0000      -2.721738       -74.0623 
  11   2.0000      -2.720439       -74.0269 
  12   2.0000      -2.716379       -73.9164 
  13   2.0000      -2.716352       -73.9157 
  14   2.0000      -2.715149       -73.8829 
  15   2.0000      -0.547225       -14.8907 
  16   2.0000      -0.451558       -12.2875 
  17   2.0000      -0.449064       -12.2196 
  18   2.0000      -0.361488        -9.8366 
  19   2.0000      -0.354871        -9.6565 
  20   2.0000      -0.342974        -9.3328 
  21   2.0000      -0.335177        -9.1206 
  22   2.0000      -0.323080        -8.7914 
  23   2.0000      -0.316484        -8.6120 
  24   0.0000      -0.033194        -0.9032 
  25   0.0000      -0.027753        -0.7552 
  26   0.0000      -0.023140        -0.6297 
  27   0.0000      -0.020015        -0.5446 
  28   0.0000       0.002521         0.0686 
  29   0.0000       0.014702         0.4001 
  30   0.0000       0.021435         0.5833 
  31   0.0000       0.029655         0.8070 
  32   0.0000       0.040491         1.1018 
  33   0.0000       0.047728         1.2987 
  34   0.0000       0.049496         1.3469 
*Only the first 10 virtual orbitals were printed.
-------
TIMINGS
-------

Total SCF time: 0 days 0 hours 1 min 12 sec 

Total time                  ....      72.385 sec
Sum of individual times     ....      71.149 sec  ( 98.3%)

SCF preparation             ....       0.906 sec  (  1.3%)
Fock matrix formation       ....      63.986 sec  ( 88.4%)
  Startup                   ....       0.136 sec  (  0.2% of F)
  Split-RI-J                ....       4.694 sec  (  7.3% of F)
  Chain of spheres X        ....      46.249 sec  ( 72.3% of F)
  XC integration            ....      12.831 sec  ( 20.1% of F)
    XC Preparation          ....       0.000 sec  (  0.0% of XC)
    Basis function eval.    ....       2.887 sec  ( 22.5% of XC)
    Density eval.           ....       4.667 sec  ( 36.4% of XC)
    XC-Functional eval.     ....       0.129 sec  (  1.0% of XC)
    XC-Potential eval.      ....       4.234 sec  ( 33.0% of XC)
Diagonalization             ....       0.000 sec  (  0.0%)
Density matrix formation    ....       0.546 sec  (  0.8%)
Total Energy calculation    ....       0.327 sec  (  0.5%)
Population analysis         ....       0.000 sec  (  0.0%)
Orbital Transformation      ....       0.650 sec  (  0.9%)
Orbital Orthonormalization  ....       0.000 sec  (  0.0%)
DIIS solution               ....       2.226 sec  (  3.1%)
SOSCF solution              ....       2.509 sec  (  3.5%)
Finished LeanSCF after  72.5 sec

Maximum memory used throughout the entire LEANSCF-calculation: 41.6 MB


           ************************************************************
           *        Program running with 24 parallel MPI-processes    *
           *              working on a common directory               *
           ************************************************************

------------------------------------------------------------------------------
                         ORCA PROPERTY INTEGRAL CALCULATIONS
------------------------------------------------------------------------------

GBWName                                   ... run.gbw
Number of atoms                           ...     12
Number of basis functions                 ...    480
Max core memory                           ...   4096 MB

Dipole integrals                          ... YES
Quadrupole integrals                      ...  NO
Linear momentum integrals                 ...  NO
Angular momentum integrals                ...  NO
Higher moments length integrals           ...  NO
Higher moments velocity integrals         ...  NO
Kinetic energy integrals                  ...  NO
GIAO right hand sides                     ...  NO
GIAO dipole derivative integrals          ...  NO
SOC integrals                             ...  NO
EPR diamagnetic integrals (GIAO)          ...  NO
EPR gauge integrals                       ...  NO
Field gradient integrals                  ...  NO (   0 nuclei)
Spin-dipole/Fermi contact integrals       ...  NO (   0 nuclei)
Contact density integrals                 ...  NO (   0 nuclei)
Nucleus-orbit integrals                   ...  NO (   0 nuclei)
Geometric perturbations                   ...  NO (  12 nuclei)

Choice of electric origin   ... Center of mass
Position of electric origin ... (  0.0166,  0.0014,  3.1811) 
Choice of magnetic origin   ... GIAO
Position of magnetic origin ... (  0.0000,  0.0000,  0.0000) 

Calculating integrals                     ... Electric Dipole (Length)     done (  0.2 sec)

Property integrals calculated in   0.2 sec

Maximum memory used throughout the entire PROPINT-calculation: 28.4 MB


-------------------------------------------------------------------------------
                          DFT DISPERSION CORRECTION                            
                                                                               
                                DFTD4 V3.4.0                                   
-------------------------------------------------------------------------------
The PBE0 functional is recognized
Active option DFTDOPT                   ...         5   

-------------------------   ----------------
Dispersion correction           -0.007818927
-------------------------   ----------------


-------------------------   --------------------
FINAL SINGLE POINT ENERGY      -732.368752524609
-------------------------   --------------------



           ************************************************************
           *        Program running with 24 parallel MPI-processes    *
           *              working on a common directory               *
           ************************************************************
------------------------------------------------------------------------------
                         ORCA SCF GRADIENT CALCULATION
------------------------------------------------------------------------------

Nuc. rep. gradient        (SHARK) ... done (  0.0 sec)
HCore & Overlap gradient  (SHARK) ... done (  0.2 sec)
Split-RIJ-J gradient      (SHARK) ... done (  1.4 sec)
done ( 35.0 sec)
XC gradient                       ... done (  5.9 sec)
Dispersion correction             ... done (  0.2 sec)

-------------------
DISPERSION GRADIENT
-------------------

   1   Al  :   -0.000034738    0.000128528    0.000085094
   2   Al  :   -0.000000758    0.000000308   -0.000148519
   3   H   :    0.000004584   -0.000047545   -0.000026293
   4   H   :   -0.000047632   -0.000025883   -0.000126532
   5   H   :   -0.000004967    0.000047641   -0.000026508
   6   H   :   -0.000056682    0.000090568    0.000061645
   7   H   :    0.000000225    0.000000049    0.000055940
   8   H   :    0.000046369    0.000025516   -0.000126925
   9   Al  :    0.000034890   -0.000128434    0.000085710
  10   H   :    0.000057730   -0.000090472    0.000061700
  11   H   :   -0.000051734   -0.000126925    0.000052764
  12   H   :    0.000052713    0.000126652    0.000051923

Difference to translation invariance:
           :    0.0000000000    0.0000000000    0.0000000000

Difference to rotation invariance:
           :   -0.0000000000    0.0000000000   -0.0000000000

Norm of the Dispersion gradient    ...    0.0004389417
RMS gradient                       ...    0.0000731569
MAX gradient                       ...    0.0001485186

------------------
CARTESIAN GRADIENT
------------------

   1   Al  :    0.000409218    0.000159118   -0.000113150
   2   Al  :   -0.000001622   -0.000002722    0.000012183
   3   H   :    0.001650226   -0.000476345   -0.000458416
   4   H   :   -0.002195243   -0.001769070   -0.001243040
   5   H   :   -0.001663603    0.000481893   -0.000448062
   6   H   :   -0.002556188    0.001160828    0.001372880
   7   H   :   -0.000020918   -0.000002391    0.001796035
   8   H   :    0.002187876    0.001765405   -0.001264071
   9   Al  :   -0.000399997   -0.000158441   -0.000102255
  10   H   :    0.002581852   -0.001121420    0.001356739
  11   H   :   -0.002674522   -0.001181196   -0.000443544
  12   H   :    0.002682922    0.001144342   -0.000465299

Difference to translation invariance:
           :    0.0000000000   -0.0000000000   -0.0000000000

Difference to rotation invariance:
           :   -0.0000025888    0.0000019351    0.0000043959

Norm of the Cartesian gradient     ...    0.0081230121
RMS gradient                       ...    0.0013538353
MAX gradient                       ...    0.0026829220

-------
TIMINGS
-------

Total SCF gradient time     ....       42.771 sec

Densities                   ....       0.010 sec  (  0.0%)
One electron gradient       ....       0.237 sec  (  0.6%)
RI-J Coulomb gradient       ....       1.397 sec  (  3.3%)
COSX gradient               ....      34.982 sec  ( 81.8%)
XC gradient                 ....       5.901 sec  ( 13.8%)

Maximum memory used throughout the entire SCFGRAD-calculation: 55.6 MB
------------------------------------------------------------------------------
                         ORCA GEOMETRY RELAXATION STEP
------------------------------------------------------------------------------

Reading the OPT-File                    .... done
Getting information on internals        .... done
Copying old internal coords+grads       .... done
Making the new internal coordinates     .... (2022 redundants) done
Validating the new internal coordinates .... (2022 redundants) done
Calculating the B-matrix                .... done
Calculating the G,G- and P matrices     .... done
Transforming gradient to internals      .... done
Projecting the internal gradient        .... done
Number of atoms                         ....  12
Number of internal coordinates          .... 117
Current Energy                          ....  -732.368752525 Eh
Current gradient norm                   ....     0.008123012 Eh/bohr
Maximum allowed component of the step   ....  0.300
Current trust radius                    ....  0.300
Evaluating the initial hessian          ....  (Almloef) done
Projecting the Hessian                  .... done
Forming the augmented Hessian           .... done
Diagonalizing the augmented Hessian     .... done
Last element of RFO vector              ....  0.999601596
Lowest eigenvalues of augmented Hessian:
 -0.000206704  0.018991915  0.022454115  0.032491949  0.059300223
Length of the computed step             ....  0.028236211
The final length of the internal step   ....  0.028236211
Converting the step to Cartesian space:
 Initial RMS(Int)=    0.0026104387
Transforming coordinates:
 Iter   0:  RMS(Cart)=    0.0049110316 RMS(Int)=    0.0026104645
done
Storing new coordinates                 .... done

                                .--------------------.
          ----------------------|Geometry convergence|-------------------------
          Item                value                   Tolerance       Converged
          ---------------------------------------------------------------------
          RMS gradient        0.0007601468            0.0000080000      NO
          MAX gradient        0.0031191507            0.0000300000      NO
          RMS step            0.0026104387            0.0001000000      NO
          MAX step            0.0094458526            0.0002000000      NO
          -------------------------------------------------------------------------
          ........................................................
          Max(Bonds)      0.0050      Max(Angles)    0.05
          Max(Dihed)        0.04      Max(Improp)    0.00
          ---------------------------------------------------------------------

The optimization has not yet converged - more geometry cycles are needed


    ---------------------------------------------------------------------------
                         Redundant Internal Coordinates
                            (Angstroem and degrees)

        Definition                    Value    dE/dq     Step     New-Value
    ----------------------------------------------------------------------------
     1. B(Al  1,Al  0)                3.0622  0.001070 -0.0047    3.0576   
     2. B(H   2,Al  1)                1.7226  0.000866 -0.0030    1.7196   
     3. B(H   3,Al  1)                1.5864  0.003079 -0.0040    1.5824   
     4. B(H   4,Al  1)                1.7227  0.000912 -0.0030    1.7197   
     5. B(H   4,Al  0)                1.7220  0.000986 -0.0031    1.7190   
     6. B(H   5,Al  0)                1.5868  0.003119 -0.0041    1.5828   
     7. B(H   6,Al  0)                1.7159  0.001083 -0.0032    1.7127   
     8. B(H   7,Al  1)                1.5864  0.003080 -0.0040    1.5824   
     9. B(Al  8,H   6)                1.7159  0.001072 -0.0032    1.7128   
    10. B(Al  8,H   2)                1.7220  0.000938 -0.0031    1.7189   
    11. B(Al  8,Al  1)                3.0659  0.001093 -0.0047    3.0613   
    12. B(Al  8,Al  0)                3.0732  0.001184 -0.0050    3.0683   
    13. B(H   9,Al  8)                1.5868  0.003119 -0.0041    1.5828   
    14. B(H  10,Al  8)                1.5874  0.002957 -0.0039    1.5836   
    15. B(H  11,Al  0)                1.5875  0.002954 -0.0038    1.5836   
    16. A(H   4,Al  0,H   6)           98.09  0.000304   -0.03     98.05   
    17. A(Al  1,Al  0,H   4)           27.26  0.000201   -0.03     27.24   
    18. A(Al  1,Al  0,Al  8)           59.96 -0.000007    0.00     59.96   
    19. A(Al  8,Al  0,H  11)          103.57  0.000030   -0.01    103.56   
    20. A(H   4,Al  0,H   5)          104.41 -0.000277    0.04    104.45   
    21. A(H   6,Al  0,H  11)          106.77  0.000045   -0.01    106.76   
    22. A(Al  1,Al  0,H   5)          131.50 -0.000080    0.02    131.52   
    23. A(Al  1,Al  0,H  11)           88.79  0.000011   -0.00     88.78   
    24. A(H   5,Al  0,H  11)          128.88  0.000074   -0.02    128.86   
    25. A(H   5,Al  0,H   6)          105.88 -0.000220    0.03    105.91   
    26. A(H   4,Al  0,Al  8)           74.24  0.000108   -0.01     74.22   
    27. A(Al  1,Al  0,H   6)           86.38  0.000251   -0.02     86.36   
    28. A(H   5,Al  0,Al  8)          122.51 -0.000075    0.02    122.53   
    29. A(H   4,Al  0,H  11)          108.63  0.000147   -0.02    108.61   
    30. A(H   6,Al  0,Al  8)           26.43  0.000257   -0.02     26.40   
    31. A(H   2,Al  1,H   7)          104.77 -0.000187    0.02    104.79   
    32. A(H   3,Al  1,H   4)          104.76 -0.000202    0.02    104.79   
    33. A(Al  0,Al  1,H   3)          127.35 -0.000026    0.00    127.35   
    34. A(H   2,Al  1,H   4)           95.84  0.000324   -0.05     95.80   
    35. A(H   4,Al  1,Al  8)           74.44  0.000138   -0.02     74.42   
    36. A(H   3,Al  1,Al  8)           98.64 -0.000051    0.01     98.65   
    37. A(H   2,Al  1,H   3)          109.39  0.000017    0.00    109.40   
    38. A(H   2,Al  1,Al  8)           27.11  0.000178   -0.03     27.09   
    39. A(Al  0,Al  1,Al  8)           60.20  0.000020   -0.01     60.19   
    40. A(H   7,Al  1,Al  8)          127.35 -0.000043    0.01    127.35   
    41. A(Al  0,Al  1,H   4)           27.25  0.000213   -0.03     27.22   
    42. A(H   4,Al  1,H   7)          109.39  0.000034    0.00    109.39   
    43. A(Al  0,Al  1,H   7)           98.73 -0.000056    0.01     98.74   
    44. A(Al  0,Al  1,H   2)           74.23  0.000122   -0.02     74.21   
    45. A(H   3,Al  1,H   7)          128.07  0.000098   -0.02    128.05   
    46. A(Al  1,H   2,Al  8)          125.76 -0.000345    0.05    125.81   
    47. A(Al  0,H   4,Al  1)          125.49 -0.000414    0.05    125.54   
    48. A(Al  0,H   6,Al  8)          127.15 -0.000517    0.05    127.20   
    49. A(Al  1,Al  8,H   2)           27.12  0.000167   -0.03     27.10   
    50. A(Al  0,Al  8,H   2)           73.91  0.000086   -0.01     73.90   
    51. A(Al  0,Al  8,Al  1)           59.84 -0.000013    0.00     59.85   
    52. A(H   6,Al  8,H  10)          106.67  0.000023   -0.01    106.67   
    53. A(H   2,Al  8,H  10)          108.66  0.000095   -0.02    108.64   
    54. A(Al  1,Al  8,H  10)           89.05 -0.000015   -0.01     89.04   
    55. A(Al  0,Al  8,H  10)          104.32  0.000007   -0.01    104.32   
    56. A(H   6,Al  8,H   9)          105.97 -0.000190    0.03    105.99   
    57. A(H   9,Al  8,H  10)          128.87  0.000099   -0.02    128.85   
    58. A(H   2,Al  8,H   9)          104.38 -0.000258    0.04    104.43   
    59. A(Al  1,Al  8,H   9)          131.31 -0.000095    0.02    131.33   
    60. A(Al  0,Al  8,H   9)          121.88 -0.000059    0.02    121.90   
    61. A(H   2,Al  8,H   6)           98.12  0.000297   -0.03     98.09   
    62. A(Al  1,Al  8,H   6)           86.26  0.000246   -0.02     86.24   
    63. A(Al  0,Al  8,H   6)           26.42  0.000259   -0.02     26.40   
    64. D(H   2,Al  1,Al  0,H   4)   -141.21 -0.000136    0.02   -141.19   
    65. D(H   3,Al  1,Al  0,H   6)     76.90 -0.000041    0.01     76.91   
    66. D(H   3,Al  1,Al  0,H   5)    -31.17  0.000047   -0.02    -31.19   
    67. D(H   3,Al  1,Al  0,Al  8)     77.33 -0.000036    0.01     77.34   
    68. D(H   2,Al  1,Al  0,Al  8)    -25.29 -0.000148    0.02    -25.27   
    69. D(H   3,Al  1,Al  0,H   4)    -38.59 -0.000025    0.01    -38.58   
    70. D(H   2,Al  1,Al  0,H   6)    -25.72 -0.000152    0.02    -25.70   
    71. D(H   2,Al  1,Al  0,H   5)   -133.79 -0.000065   -0.00   -133.80   
    72. D(H   2,Al  1,Al  0,H  11)     81.16 -0.000119    0.01     81.18   
    73. D(H   3,Al  1,Al  0,H  11)   -176.22 -0.000007   -0.00   -176.22   
    74. D(Al  8,H   2,Al  1,H   7)    149.52 -0.000015    0.01    149.53   
    75. D(Al  8,H   2,Al  1,H   3)    -70.23 -0.000032    0.01    -70.23   
    76. D(Al  8,H   2,Al  1,Al  0)     54.44 -0.000033    0.01     54.44   
    77. D(Al  8,H   2,Al  1,H   4)     37.68 -0.000116    0.02     37.69   
    78. D(Al  1,H   4,Al  0,H   5)   -174.27  0.000055   -0.02   -174.29   
    79. D(Al  0,H   4,Al  1,H   7)    -70.61 -0.000013    0.00    -70.61   
    80. D(Al  0,H   4,Al  1,Al  8)     54.11 -0.000030    0.00     54.12   
    81. D(Al  0,H   4,Al  1,H   3)    149.15  0.000001    0.00    149.16   
    82. D(Al  0,H   4,Al  1,H   2)     37.31 -0.000078    0.01     37.32   
    83. D(Al  1,H   4,Al  0,H  11)     45.32  0.000070   -0.02     45.30   
    84. D(Al  1,H   4,Al  0,Al  8)    -54.01  0.000039   -0.01    -54.01   
    85. D(Al  1,H   4,Al  0,H   6)    -65.50 -0.000147    0.01    -65.48   
    86. D(Al  8,H   6,Al  0,H   4)     25.52  0.000204   -0.03     25.49   
    87. D(Al  8,H   6,Al  0,Al  1)      0.83  0.000001   -0.00      0.83   
    88. D(Al  8,H   6,Al  0,H   5)    133.08 -0.000039    0.02    133.10   
    89. D(Al  8,H   6,Al  0,H  11)    -86.81 -0.000084    0.01    -86.80   
    90. D(Al  1,Al  8,Al  0,H  11)    -80.52  0.000007   -0.00    -80.52   
    91. D(Al  1,Al  8,Al  0,H   6)    179.04 -0.000002    0.00    179.04   
    92. D(Al  1,Al  8,Al  0,H   5)    122.63 -0.000079    0.02    122.65   
    93. D(H   2,Al  8,Al  0,Al  1)     25.35  0.000142   -0.02     25.33   
    94. D(Al  1,Al  8,Al  0,H   4)     25.35  0.000173   -0.02     25.33   
    95. D(H   9,Al  8,H   6,Al  0)    131.19 -0.000053    0.02    131.21   
    96. D(H   2,Al  8,H   6,Al  0)     23.63  0.000165   -0.02     23.60   
    97. D(Al  1,Al  8,H   6,Al  0)     -0.83 -0.000001    0.00     -0.83   
    98. D(H  10,Al  8,H   2,Al  1)     45.77  0.000056   -0.02     45.75   
    99. D(H   9,Al  8,H   2,Al  1)   -173.85  0.000048   -0.02   -173.87   
   100. D(H   6,Al  8,H   2,Al  1)    -64.97 -0.000120    0.01    -64.97   
   101. D(H   6,Al  8,Al  1,H   2)    115.98  0.000005   -0.00    115.98   
   102. D(H   6,Al  8,Al  1,Al  0)      0.43  0.000005   -0.00      0.43   
   103. D(H   2,Al  8,Al  1,H   7)    -38.10 -0.000033    0.01    -38.09   
   104. D(H   2,Al  8,Al  1,H   4)   -140.86 -0.000181    0.03   -140.84   
   105. D(H   2,Al  8,Al  1,H   3)    116.12  0.000004    0.00    116.13   
   106. D(H   2,Al  8,Al  1,Al  0)   -115.55 -0.000001    0.00   -115.55   
   107. D(Al  0,Al  8,Al  1,H   7)     77.46 -0.000032    0.01     77.47   
   108. D(Al  0,Al  8,Al  1,H   4)    -25.31 -0.000180    0.02    -25.29   
   109. D(Al  0,Al  8,H   2,Al  1)    -54.28  0.000046   -0.01    -54.29   
   110. D(Al  0,Al  8,Al  1,H   3)   -128.33  0.000005    0.00   -128.32   
   111. D(Al  0,Al  8,Al  1,H   2)    115.55  0.000001   -0.00    115.55   
   112. D(H   6,Al  8,Al  0,Al  1)   -179.04  0.000002   -0.00   -179.04   
   113. D(H   2,Al  8,Al  0,H  11)    -55.17  0.000150   -0.02    -55.19   
   114. D(H   2,Al  8,Al  0,H   6)   -155.61  0.000141   -0.02   -155.63   
   115. D(H   2,Al  8,Al  0,H   5)    147.98  0.000064   -0.00    147.97   
   116. D(H  10,Al  8,H   6,Al  0)    -88.72 -0.000058    0.01    -88.70   
   117. D(H   2,Al  8,Al  0,H   4)     50.70  0.000316   -0.04     50.65   
    ----------------------------------------------------------------------------

Geometry step timings:
Preparation and reading OPT file:      0.000 s ( 0.139 %)
Internal coordinates            :      0.000 s ( 0.201 %)
B/P matrices and projection     :      0.003 s ( 9.124 %)
Hessian update/contruction      :      0.002 s ( 5.468 %)
Making the step                 :      0.025 s (80.890 %)
Converting the step to Cartesian:      0.000 s ( 1.139 %)
Storing new data                :      0.000 s ( 0.188 %)
Checking convergence            :      0.000 s ( 0.191 %)
Final printing                  :      0.001 s ( 2.653 %)
Total time                      :      0.031 s

Time for energy+gradient        :    129.658 s
Time for complete geometry iter :    130.434 s

         *************************************************************
         *                GEOMETRY OPTIMIZATION CYCLE   2            *
         *************************************************************
---------------------------------
CARTESIAN COORDINATES (ANGSTROEM)
---------------------------------
  Al    -0.229286    1.516221    2.564032
  Al     0.000136   -0.000511   -0.080902
  H      0.870778   -0.934281    1.071143
  H     -1.101347   -0.906130   -0.766961
  H     -0.861176    0.939813    1.072956
  H     -1.469883    2.180631    3.288372
  H      0.004075    0.000975    3.327542
  H      1.095832    0.901373   -0.780951
  Al     0.255496   -1.513487    2.568052
  H      1.509456   -2.158871    3.286555
  H     -1.177387   -2.139620    2.318031
  H      1.210245    2.122198    2.302490

----------------------------
CARTESIAN COORDINATES (A.U.)
----------------------------
  NO LB      ZA    FRAG     MASS         X           Y           Z
   0 Al   13.0000    0    26.982   -0.433288    2.865243    4.845318
   1 Al   13.0000    0    26.982    0.000257   -0.000966   -0.152882
   2 H     1.0000    0     1.008    1.645533   -1.765536    2.024168
   3 H     1.0000    0     1.008   -2.081245   -1.712337   -1.449347
   4 H     1.0000    0     1.008   -1.627387    1.775989    2.027594
   5 H     1.0000    0     1.008   -2.777676    4.120795    6.214122
   6 H     1.0000    0     1.008    0.007700    0.001842    6.288144
   7 H     1.0000    0     1.008    2.070823    1.703349   -1.475783
   8 Al   13.0000    0    26.982    0.482818   -2.860076    4.852914
   9 H     1.0000    0     1.008    2.852459   -4.079676    6.210688
  10 H     1.0000    0     1.008   -2.224938   -4.043296    4.380445
  11 H     1.0000    0     1.008    2.287032    4.010373    4.351076

--------------------------------
INTERNAL COORDINATES (ANGSTROEM)
--------------------------------
 Al     0   0   0     0.000000000000     0.00000000     0.00000000
 Al     1   0   0     3.057578548586     0.00000000     0.00000000
 H      2   1   0     1.719637417694    74.20645969     0.00000000
 H      2   1   3     1.582431179719   127.35123984   102.60901643
 H      1   2   3     1.718964331068    27.23744585   218.81302870
 H      1   2   3     1.582778754299   131.52294330   226.20223752
 H      1   2   3     1.712710645686    86.36152552   334.29909497
 H      2   1   3     1.582408146274    98.73823734   257.00043359
 Al     7   1   2     1.712784984209   127.19952975     0.83206264
 H      9   7   1     1.582776965127   105.99440978   131.21058123
 H      9   7   1     1.583574240229   106.66627337   271.29595447
 H      1   2   3     1.583622845055    88.78212010    81.17524095

---------------------------
INTERNAL COORDINATES (A.U.)
---------------------------
 Al     0   0   0     0.000000000000     0.00000000     0.00000000
 Al     1   0   0     5.777986089780     0.00000000     0.00000000
 H      2   1   0     3.249643769086    74.20645969     0.00000000
 H      2   1   3     2.990361555446   127.35123984   102.60901643
 H      1   2   3     3.248371819697    27.23744585   218.81302870
 H      1   2   3     2.991018376214   131.52294330   226.20223752
 H      1   2   3     3.236554066998    86.36152552   334.29909497
 H      2   1   3     2.990318028543    98.73823734   257.00043359
 Al     7   1   2     3.236694546448   127.19952975     0.83206264
 H      9   7   1     2.991014995170   105.99440978   131.21058123
 H      9   7   1     2.992521626765   106.66627337   271.29595447
 H      1   2   3     2.992613476575    88.78212010    81.17524095



           ************************************************************
           *        Program running with 24 parallel MPI-processes    *
           *              working on a common directory               *
           ************************************************************
------------------------------------------------------------------------------
                   ___                                                        
                  /   \      - P O W E R E D   B Y -                         
                 /     \                                                     
                 |  |  |   _    _      __       _____    __    __             
                 |  |  |  | |  | |    /  \     |  _  \  |  |  /  |          
                  \  \/   | |  | |   /    \    | | | |  |  | /  /          
                 / \  \   | |__| |  /  /\  \   | |_| |  |  |/  /          
                |  |  |   |  __  | /  /__\  \  |    /   |      \           
                |  |  |   | |  | | |   __   |  |    \   |  |\   \          
                \     /   | |  | | |  |  |  |  | |\  \  |  | \   \       
                 \___/    |_|  |_| |__|  |__|  |_| \__\ |__|  \__/        
                                                                              
                      - O R C A' S   B I G   F R I E N D -                    
                                      &                                       
                       - I N T E G R A L  F E E D E R -                       
                                                                              
 v1 FN, 2020, v2 2021, v3 2022-2024                                           
------------------------------------------------------------------------------


----------------------
SHARK INTEGRAL PACKAGE
----------------------

Number of atoms                             ...     12
Number of basis functions                   ...    480
Number of shells                            ...    156
Maximum angular momentum                    ...      4
Integral batch strategy                     ... SHARK/LIBINT Hybrid
RI-J (if used) integral strategy            ... SPLIT-RIJ (Revised 2003 algorithm where possible)
Printlevel                                  ...      1
Contraction scheme used                     ... SEGMENTED contraction
Prescreening option                         ... SCHWARTZ
   Thresh                                   ... 3.000e-16
   Tcut                                     ... 3.000e-16
   Tpresel                                  ... 3.000e-16 
Coulomb Range Separation                    ... NOT USED
Exchange Range Separation                   ... NOT USED
Multipole approximations                    ... NOT USED
Finite Nucleus Model                        ... NOT USED
CABS basis                                  ... NOT available
Auxiliary Coulomb fitting basis             ... AVAILABLE
   # of basis functions in Aux-J            ...    252
   # of shells in Aux-J                     ...     96
   Maximum angular momentum in Aux-J        ...      4
Auxiliary J/K fitting basis                 ... NOT available
Auxiliary Correlation fitting basis         ... NOT available
Auxiliary 'external' fitting basis          ... NOT available

Checking pre-screening integrals            ... done (  0.0 sec) Dimension = 156
   => SHARK Basis and OBASIS are compatible. Storing Pre-screening
Shell pair information
Shell pair cut-off parameter TPreSel        ...   3.0e-16
Total number of shell pairs                 ...     12246
[...]
      7      -0.049425  -0.048845   0.060208  -0.027758   0.023690  -0.001720
      8       0.088464   0.078846  -0.107434   0.041789  -0.044679  -0.001145
      9      -0.008893  -0.115796   0.481697   0.292342   0.019278   0.368109
     10      -0.008335  -0.095845   0.402646   0.246017   0.017366   0.306051
     11      -0.006742  -0.075210   0.299281   0.191382   0.009690   0.232925
     12      -0.004701   0.007280   0.008939   0.003158   0.009004  -0.004324
     13       0.054000  -0.043097  -0.060420  -0.030356  -0.019393  -0.001573
     14       0.095406  -0.068457  -0.107210  -0.046808  -0.037864   0.001507
     15       0.253498  -0.223462   0.060491  -0.451411  -0.454067   0.253436
     16      -0.135388   0.122093  -0.032661   0.251365   0.252442  -0.139759
     17      -0.149190   0.128478  -0.034314   0.268208   0.271717  -0.149037
     18      -0.001686   0.034231   0.000072   0.020302  -0.001396  -0.007603
     19       0.011878  -0.235329  -0.000184  -0.081235   0.004728   0.019622
     20      -0.001146   0.000290  -0.001817  -0.000097  -0.002280  -0.000057
     21       0.019472  -0.113601  -0.473361   0.290433  -0.072569   0.367041
     22       0.017184  -0.093983  -0.396082   0.244459  -0.062168   0.305432
     23      -0.014065   0.075741   0.302407  -0.195714   0.045825  -0.238807
     24      -0.010396  -0.011063   0.001613   0.018354  -0.030242  -0.020610
     25      -0.012606  -0.008870  -0.002315  -0.003429   0.005173  -0.000169
     26      -0.000460   0.001953   0.003696   0.008480  -0.012431  -0.007618
     27      -0.233411  -0.257272  -0.066673  -0.373072   0.522247   0.259719
     28       0.119736   0.135076   0.034749   0.200172  -0.279757  -0.137969
     29      -0.135299  -0.145843  -0.037268  -0.217458   0.306875   0.150061
     30       0.537558   0.554926   0.001929  -0.124919   0.293057   0.297630
     31       0.235054   0.242544   0.002385  -0.058222   0.133848   0.131758
     32       0.096743   0.101789  -0.000634  -0.017601   0.050348   0.053212
     33      -0.595629   0.503537  -0.003754  -0.170744  -0.265101   0.293842
     34      -0.251302   0.212233  -0.003240  -0.076508  -0.116848   0.125584
     35       0.111314  -0.095782  -0.000440   0.026644   0.047826  -0.054487


-----------
IR SPECTRUM
-----------

 Mode   freq       eps      Int      T**2         TX        TY        TZ
       cm**-1   L/(mol*cm) km/mol    a.u.
----------------------------------------------------------------------------
  7:    137.06   0.000393    1.99  0.000895  ( 0.000659 -0.000221 -0.029907)
  8:    162.30   0.000033    0.17  0.000064  ( 0.002712  0.007525  0.000238)
  9:    232.36   0.000648    3.27  0.000870  (-0.000094  0.000033 -0.029496)
 10:    312.73   0.002118   10.70  0.002113  (-0.038749  0.024721  0.000672)
 11:    336.26   0.000111    0.56  0.000103  (-0.000348  0.000090  0.010161)
 12:    410.09   0.001380    6.97  0.001050  (-0.021455  0.024280  0.000136)
 13:    428.00   0.000222    1.12  0.000162  ( 0.000149  0.000156  0.012724)
 14:    445.53   0.001820    9.20  0.001275  ( 0.000275 -0.000228  0.035703)
 15:    495.30   0.000718    3.63  0.000452  (-0.021010  0.003294  0.000362)
 16:    515.76   0.009461   47.81  0.005724  ( 0.066139 -0.036741 -0.000347)
 17:    586.41   0.024822  125.44  0.013209  (-0.000523 -0.000522  0.114930)
 18:    696.20   0.139322  704.08  0.062450  ( 0.006908  0.249785  0.003001)
 19:    697.47   0.104732  529.27  0.046860  ( 0.001900 -0.003391  0.216436)
 20:    739.34   0.000764    3.86  0.000322  ( 0.002350 -0.001042  0.017767)
 21:    745.60   0.029823  150.71  0.012482  (-0.091490  0.064095 -0.001817)
 22:    763.25   0.029770  150.44  0.012172  (-0.026747 -0.106973 -0.003633)
 23:    773.18   0.029491  149.04  0.011903  (-0.002204 -0.001933  0.109061)
 24:   1083.03   0.035322  178.50  0.010178  (-0.015376  0.004572  0.099602)
 25:   1087.69   0.039950  201.89  0.011462  ( 0.100645 -0.033573  0.014333)
 26:   1136.13   0.000054    0.27  0.000015  (-0.002888  0.001028  0.002319)
 27:   1739.00   0.007042   35.59  0.001264  ( 0.005701 -0.035038 -0.001867)
 28:   1801.35   0.197112  996.12  0.034147  ( 0.000815  0.001214  0.184784)
 29:   1828.54   0.203348  1027.64  0.034704  ( 0.025484 -0.184530  0.001839)
 30:   1956.89   0.000386    1.95  0.000062  ( 0.001555 -0.000115 -0.007693)
 31:   1959.10   0.003089   15.61  0.000492  (-0.022100 -0.001905 -0.000212)
 32:   1961.54   0.002025   10.24  0.000322  ( 0.000039 -0.000533 -0.017942)
 33:   1967.87   0.014249   72.01  0.002260  ( 0.029442 -0.037196 -0.003045)
 34:   1968.01   0.009285   46.92  0.001472  (-0.002368  0.002567 -0.038212)
 35:   1975.01   0.074291  375.43  0.011738  (-0.102755 -0.034347  0.000331)

* The epsilon (eps) is given for a Dirac delta lineshape.
** The dipole moment derivative (T) already includes vibrational overlap.

--------------
RAMAN SPECTRUM  
--------------

 Mode    freq (cm**-1)   Activity   Depolarization
-------------------------------------------------------------------
   7:       137.06      2.874203      0.173490
   8:       162.30      0.559018      0.744725
   9:       232.36      3.291703      0.745039
  10:       312.73      2.748583      0.749866
  11:       336.26     13.426334      0.242869
  12:       410.09      4.397845      0.749991
  13:       428.00      2.522428      0.711980
  14:       445.53      4.996244      0.747049
  15:       495.30      0.267259      0.749855
  16:       515.76      2.272939      0.749931
  17:       586.41      1.461167      0.222528
  18:       696.20      3.005635      0.749993
  19:       697.47      8.939426      0.746546
  20:       739.34      4.489126      0.746144
  21:       745.60      3.024982      0.749995
  22:       763.25      1.917690      0.749833
  23:       773.18      4.784646      0.618922
  24:      1083.03      5.731344      0.345735
  25:      1087.69      8.622010      0.717896
  26:      1136.13     98.282747      0.033094
  27:      1739.00      7.455096      0.749998
  28:      1801.35     17.657842      0.732699
  29:      1828.54     25.058518      0.749995
  30:      1956.89    487.796669      0.027788
  31:      1959.10     20.877626      0.668523
  32:      1961.54    380.544777      0.021975
  33:      1967.87     94.516765      0.739666
  34:      1968.01    186.332588      0.387023
  35:      1975.01     55.393682      0.750000

The first frequency considered to be a vibration is 7
The total number of vibrations considered is 29


--------------------------
THERMOCHEMISTRY AT 298.15K
--------------------------

Temperature         ...   298.15 K
Pressure            ...     1.00 atm
Total Mass          ...    90.02 AMU
Quasi RRHO          ...     True
Cut-Off Frequency   ...     1.00 cm^-1

Throughout the following assumptions are being made:
  (1) The electronic state is orbitally nondegenerate
  (2) There are no thermally accessible electronically excited states
  (3) Hindered rotations indicated by low frequency modes are not
      treated as such but are treated as vibrations and this may
      cause some error
  (4) All equations used are the standard statistical mechanics
      equations for an ideal gas
  (5) All vibrations are strictly harmonic

freq.     137.06  E(vib)   ...       0.42 
freq.     162.30  E(vib)   ...       0.39 
freq.     232.36  E(vib)   ...       0.32 
freq.     312.73  E(vib)   ...       0.25 
freq.     336.26  E(vib)   ...       0.24 
freq.     410.09  E(vib)   ...       0.19 
freq.     428.00  E(vib)   ...       0.18 
freq.     445.53  E(vib)   ...       0.17 
freq.     495.30  E(vib)   ...       0.14 
freq.     515.76  E(vib)   ...       0.13 
freq.     586.41  E(vib)   ...       0.11 
freq.     696.20  E(vib)   ...       0.07 
freq.     697.47  E(vib)   ...       0.07 
freq.     739.34  E(vib)   ...       0.06 
freq.     745.60  E(vib)   ...       0.06 
freq.     763.25  E(vib)   ...       0.06 
freq.     773.18  E(vib)   ...       0.05 
freq.    1083.03  E(vib)   ...       0.02 
freq.    1087.69  E(vib)   ...       0.02 
freq.    1136.13  E(vib)   ...       0.01 
freq.    1739.00  E(vib)   ...       0.00 
freq.    1801.35  E(vib)   ...       0.00 
freq.    1828.54  E(vib)   ...       0.00 
freq.    1956.89  E(vib)   ...       0.00 
freq.    1959.10  E(vib)   ...       0.00 
freq.    1961.54  E(vib)   ...       0.00 
freq.    1967.87  E(vib)   ...       0.00 
freq.    1968.01  E(vib)   ...       0.00 
freq.    1975.01  E(vib)   ...       0.00 

------------
INNER ENERGY
------------

The inner energy is: U= E(el) + E(ZPE) + E(vib) + E(rot) + E(trans)
    E(el)   - is the total energy from the electronic structure calculation
              = E(kin-el) + E(nuc-el) + E(el-el) + E(nuc-nuc)
    E(ZPE)  - the the zero temperature vibrational energy from the frequency calculation
    E(vib)  - the the finite temperature correction to E(ZPE) due to population
              of excited vibrational states
    E(rot)  - is the rotational thermal energy
    E(trans)- is the translational thermal energy

Summary of contributions to the inner energy U:
Electronic energy                ...   -732.36910311 Eh
Zero point energy                ...      0.06593242 Eh      41.37 kcal/mol
Thermal vibrational correction   ...      0.00472035 Eh       2.96 kcal/mol
Thermal rotational correction    ...      0.00141627 Eh       0.89 kcal/mol
Thermal translational correction ...      0.00141627 Eh       0.89 kcal/mol
-----------------------------------------------------------------------
Total thermal energy                   -732.29561779 Eh


Summary of corrections to the electronic energy:
(perhaps to be used in another calculation)
Total thermal correction                  0.00755289 Eh       4.74 kcal/mol
Non-thermal (ZPE) correction              0.06593242 Eh      41.37 kcal/mol
-----------------------------------------------------------------------
Total correction                          0.07348531 Eh      46.11 kcal/mol


--------
ENTHALPY
--------

The enthalpy is H = U + kB*T
                kB is Boltzmann's constant
Total thermal energy              ...   -732.29561779 Eh 
Thermal Enthalpy correction       ...      0.00094421 Eh       0.59 kcal/mol
-----------------------------------------------------------------------
Total Enthalpy                    ...   -732.29467359 Eh


Note: Only C1 symmetry has been detected, increase convergence thresholds 
      if your molecule has a higher symmetry. Symmetry factor of 1.0 is   
      used for the rotational entropy correction. 
 

Note: Rotational entropy computed according to Herzberg 
Infrared and Raman Spectra, Chapter V,1, Van Nostrand Reinhold, 1945 
Point Group:  C1, Symmetry Number:   1  
Rotational constants in cm-1:     0.107161     0.106289     0.057384 

Vibrational entropy computed according to the QRRHO of S. Grimme
Chem.Eur.J. 2012 18 9955 using a reference frequency of 100.0 cm-1


-------
ENTROPY
-------

The entropy contributions are T*S = T*(S(el)+S(vib)+S(rot)+S(trans))
     S(el)   - electronic entropy
     S(vib)  - vibrational entropy
     S(rot)  - rotational entropy
     S(trans)- translational entropy
The entropies will be listed as multiplied by the temperature to get
units of energy

Electronic entropy                ...      0.00000000 Eh      0.00 kcal/mol
Vibrational entropy               ...      0.00756424 Eh      4.75 kcal/mol
Rotational entropy                ...      0.01297266 Eh      8.14 kcal/mol
Translational entropy             ...      0.01872231 Eh     11.75 kcal/mol
-----------------------------------------------------------------------
Final entropy term                ...      0.03925921 Eh     24.64 kcal/mol

In case the symmetry of your molecule has not been determined correctly
or in case you have a reason to use a different symmetry number we print 
out the resulting rotational entropy values for sn=1,12:

 non-linear molecules -----------------------------------
|  sn= 1 | S(rot)=       0.01297266 Eh      8.14 kcal/mol|
|  sn= 2 | S(rot)=       0.01231820 Eh      7.73 kcal/mol|
|  sn= 3 | S(rot)=       0.01193537 Eh      7.49 kcal/mol|
|  sn= 4 | S(rot)=       0.01166374 Eh      7.32 kcal/mol|
|  sn= 5 | S(rot)=       0.01145306 Eh      7.19 kcal/mol|
|  sn= 6 | S(rot)=       0.01128091 Eh      7.08 kcal/mol|
|  sn= 7 | S(rot)=       0.01113537 Eh      6.99 kcal/mol|
|  sn= 8 | S(rot)=       0.01100929 Eh      6.91 kcal/mol|
|  sn= 9 | S(rot)=       0.01089808 Eh      6.84 kcal/mol|
|  sn=10 | S(rot)=       0.01079860 Eh      6.78 kcal/mol|
|  sn=11 | S(rot)=       0.01070861 Eh      6.72 kcal/mol|
|  sn=12 | S(rot)=       0.01062646 Eh      6.67 kcal/mol|
 linear molecules ---------------------------------------
|  Dinfh | S(rot)=       0.00802427 Eh      5.04 kcal/mol|
|  Cinfv | S(rot)=       0.00867873 Eh      5.45 kcal/mol|
 --------------------------------------------------------


-------------------
GIBBS FREE ENERGY
-------------------

The Gibbs free energy is G = H - T*S

Total enthalpy                    ...   -732.29467359 Eh 
Total entropy correction          ...     -0.03925921 Eh    -24.64 kcal/mol
-----------------------------------------------------------------------
Final Gibbs free energy         ...   -732.33393279 Eh

For completeness - the Gibbs free energy minus the electronic energy
G-E(el)                           ...      0.03517031 Eh     22.07 kcal/mol


Maximum memory used throughout the entire PROP-calculation: 170.9 MB

--------------------------------
SUGGESTED CITATIONS FOR THIS RUN
--------------------------------

Below you find a list of papers that are relevant to this ORCA run
We neither can nor want to force you to cite these papers, but we appreciate if you do
You receive ORCA, which is the product of decades of hard work by many enthusiastic individuals, for free
The only thing we kindly ask in return is that you cite our papers,
We deeply appreciate it, if you show your appreciation for ORCA by not just citing the generic ORCA reference.

Please note that relegating all ORCA citations to the supporting information does *not* help us.
SI sections are not indexed - citations you put there will not count into any citation statistics
But we need these citations in order to attract the funding resources that allow us to do what we are doing

Therefore, if you are a happy ORCA user, please consider citing a few of the papers listed below in the main body of your paper

In addition to the list printed below, the program has created the file run.bibtex that contains the list in bibtex format
You can import this file easily into all common literature databanks and citation aid programs


List of essential papers. We consider these as the minimum necessary citations

  1. Neese, F.
     Software update: the ORCA program system, version 6.0
     WIRES Comput. Molec. Sci. 2025 15(1), e70019
     doi.org/10.1002/wcms.7019

List of papers to cite with high priority. The work reported in these papers was absolutely
necessary for this run to complete.
Our perspective: the developers of density functionals and basis sets usually get cited in chemistry papers
Good! But without the algorithms to do something with them, the functionals or basis sets would not do anything.
Hence, in our opinion, the algorithm design and method developments papers are equally worthy of getting cited

  1. Neese, F.
     An improvement of the resolution of the identity approximation for the formation of the Coulomb matrix
     J. Comp. Chem. 2003 24(14), 1740-1747
     doi.org/10.1002/jcc.10318
  2. Neese, F.; Wennmohs, F.; Hansen, A.; Becker, U.
     Efficient, approximate and parallel Hartree-Fock and hybrid DFT calculations. A 'chain-of-spheres' algorithm for the Hartree-Fock exchange
     Chem. Phys. 2009 356(1-3), 98-109
     doi.org/10.1016/j.chemphys.2008.10.036
  3. Bykov, D.; Petrenko, T.; Izsak, R.; Kossmann, S.; Becker, U.; Valeev, E.; Neese, F.
     Efficient implementation of the analytic second derivatives of Hartree-Fock and hybrid DFT energies: a detailed analysis of different approximations
     Molec. Phys. 2015 113 , 1961-1977
     doi.org/10.1080/00268976.2015.1025114
  4. Caldeweyher, E.; Bannwarth, C.; Grimme, S.
     Extension of the D3 dispersion coefficient model
     J. Chem. Phys. 2017 147 , 034112
     doi.org/10.1063/1.4993215
  5. Caldeweyher, E.; Ehlert, S.; Hansen, A.; Neugebauer, H.; Spicher, S.; Bannwarth, C.; Grimme, S.
     A generally applicable atomic-charge dependent London dispersion correction
     J. Chem. Phys. 2019 150 , 154122
     doi.org/10.1063/1.5090222
  6. Caldeweyher, E.; Mewes, J.; Ehlert, S.; Grimme, S.
     Extension and evaluation of the D4 London-dispersion model for periodic systems
     Phys. Chem. Chem. Phys. 2020 22(16), 8499-8512
     doi.org/10.1039/D0CP00502A
  7. Helmich-Paris, B.; de Souza, B.; Neese, F.; Izsák, R.
     An improved chain of spheres for exchange algorithm
     J. Chem. Phys. 2021 155(10), 104109
     doi.org/10.1063/5.0058766
  8. Neese, F.
     The SHARK Integral Generation and Digestion System
     J. Comp. Chem. 2022 44(3), 381
     doi.org/10.1002/jcc.26942
  9. Wittmann, L.; Gordiy, I.; Friede, M.; Helmich-Paris, B.; Grimme, S.; Hansen, A.; Bursch, M.
     Extension of the D3 and D4 London Dispersion Corrections to the full Actinides Series
     Phys. Chem. Chem. Phys. 2024 26(32), 21379-21394
     doi.org/10.1039/D4CP01514B
 10. Petra, P.; Frank, N.
     Efficient calculation of analytic Raman intensities
     to be submitted 2025  , 

List of suggested additional citations. These are papers that are important in the 'surrounding' of 
of this run, or papers that preceded the highly important papers. If you like your results we are grateful for a citation.

  1. Izsak, R.; Neese, F.
     An overlap fitted chain of spheres exchange method
     J. Chem. Phys. 2011 135 , 144105
     doi.org/10.1063/1.3646921
  2. Izsak, R.; Hansen, A.; Neese, F.
     The resolution of identity and chain of spheres approximations for the LPNO-CCSD singles Fock term
     Molec. Phys. 2012 110 , 2413-2417
     doi.org/10.1080/00268976.2012.687466
  3. Neese, F.
     The ORCA program system
     WIRES Comput. Molec. Sci. 2012 2(1), 73-78
     doi.org/10.1002/wcms.81
  4. Izsak, R.; Neese, F.; Klopper, W.
     Robust fitting techniques in the chain of spheres approximation to the Fock exchange: The role of the complementary space
     J. Chem. Phys. 2013 139 , 
     doi.org/10.1063/1.4819264
  5. Neese, F.
     Software update: the ORCA program system, version 4.0
     WIRES Comput. Molec. Sci. 2018 8(1), 1-6
     doi.org/10.1002/wcms.1327
  6. Neese, F.; Wennmohs, F.; Becker, U.; Riplinger, C.
     The ORCA quantum chemistry program package
     J. Chem. Phys. 2020 152(22), 224108
     doi.org/10.1063/5.0004608
  7. Neese, F.
     Software update: The ORCA program system—Version 5.0
     WIRES Comput. Molec. Sci. 2022 12(1), e1606
     doi.org/10.1002/wcms.1606

List of optional additional citations

  1. Neese, F.
     Approximate second-order SCF convergence for spin unrestricted wavefunctions
     Chem. Phys. Lett. 2000 325(1-3), 93-98
     doi.org/10.1016/s0009-2614(00)00662-x

Timings for individual modules:

Sum of individual times          ...     3171.884 sec (=  52.865 min)
Startup calculation              ...      105.217 sec (=   1.754 min)   3.3 %
SCF iterations                   ...      931.539 sec (=  15.526 min)  29.4 %
Property integrals               ...      219.327 sec (=   3.655 min)   6.9 %
SCF Response                     ...      140.525 sec (=   2.342 min)   4.4 %
Property calculations            ...     1034.710 sec (=  17.245 min)  32.6 %
SCF Gradient evaluation          ...      740.212 sec (=  12.337 min)  23.3 %
Geometry relaxation              ...        0.354 sec (=   0.006 min)   0.0 %
                             ****ORCA TERMINATED NORMALLY****
TOTAL RUN TIME: 0 days 0 hours 53 minutes 8 seconds 264 msec
