
                                 *****************
                                 * O   R   C   A *
                                 *****************

                                            #,                                       
                                            ###                                      
                                            ####                                     
                                            #####                                    
                                            ######                                   
                                           ########,                                 
                                     ,,################,,,,,                         
                               ,,#################################,,                 
                          ,,##########################################,,             
                       ,#########################################, ''#####,          
                    ,#############################################,,   '####,        
                  ,##################################################,,,,####,       
                ,###########''''           ''''###############################       
              ,#####''   ,,,,##########,,,,          '''####'''          '####       
            ,##' ,,,,###########################,,,                        '##       
           ' ,,###''''                  '''############,,,                           
         ,,##''                                '''############,,,,        ,,,,,,###''
      ,#''                                            '''#######################'''  
     '                                                          ''''####''''         
             ,#######,   #######,   ,#######,      ##                                
            ,#'     '#,  ##    ##  ,#'     '#,    #''#        ,####,    ,#,          
            ##       ##  ##   ,#'  ##            #'  '#       #'       ,# #          
            ##       ##  #######   ##           ,######,      #####,      #          
            '#,     ,#'  ##    ##  '#,     ,#' ,#      #,     #,   #      #          
             '#######'   ##     ##  '#######'  #'      '#     '####' #    #          



                #########################################################
                #                        -***-                          #
                #          Department of theory and spectroscopy        #
                #                                                       #
                #                      Frank Neese                      #
                #                                                       #
                #     Directorship, Architecture, Infrastructure        #
                #                    SHARK, DRIVERS                     #
                #        Core code/Algorithms in most modules           #
                #                                                       #
                #        Max Planck Institute fuer Kohlenforschung      #
                #                Kaiser Wilhelm Platz 1                 #
                #                 D-45470 Muelheim/Ruhr                 #
                #                      Germany                          #
                #                                                       #
                #                  All rights reserved                  #
                #                        -***-                          #
                #########################################################


                         Program Version 6.1.0  -  RELEASE   -
                                (GIT: $679e74b$)
                          ($2025-06-10 18:02:51 +0200$)


 With contributions from (in alphabetic order):
[Max-Planck-Institut fuer Kohlenforschung]                               
  Daniel Aravena         : Magnetic Suceptibility                        
  Michael Atanasov       : Ab Initio Ligand Field Theory (pilot matlab implementation)
  Alexander A. Auer      : GIAO ZORA, VPT2 properties, NMR spectrum      
  Ute Becker             : All parallelization in ORCA, NUMFREQ, NUMCALC 
  Giovanni Bistoni       : ED, misc. LED, open-shell LED, HFLD           
  Dmytro Bykov           : pre 5.0 version of the SCF Hessian            
  Marcos Casanova-Páez   : Triplet and SCS-CIS(D). UHF-(DLPNO)-IP/EA/STEOM-CCSD. UHF-CVS-IP/STEOM-CCSD   
  Vijay G. Chilkuri      : MRCI spin determinant printing, contributions to CSF-ICE 
  Pauline Colinet        : FMM embedding                                 
  Dipayan Datta          : RHF DLPNO-CCSD density                        
  Achintya Kumar Dutta   : EOM-CC, STEOM-CC                              
  Nicolas Foglia         : Exact transition moments, OPA infrastructure, MCD improvements    
  Dmitry Ganyushin       : Spin-Orbit,Spin-Spin,Magnetic field MRCI      
  Miquel Garcia-Rates    : C-PCM and meta-GGA Hessian, CCSD/C-PCM, Gaussian charge scheme 
  Tiago L. C. Gouveia    : GS-ROHF, GS-ROCIS                             
  Yang Guo               : DLPNO-NEVPT2, F12-NEVPT2, CIM, IAO-localization        
  Andreas Hansen         : Spin unrestricted coupled pair/coupled cluster methods 
  Ingolf Harden          : AUTO-CI MPn and infrastructure                
  Benjamin Helmich-Paris : MC-RPA, TRAH-(SCF,CASSCF), AVAS, COSX integrals, SCF dyn. polar., MC-PDFT, srDFT 
  Lee Huntington         : MR-EOM, pCC                                   
  Robert Izsak           : Overlap fitted RIJCOSX, COSX-SCS-MP3, EOM     
  Riya Kayal             : Wick's Theorem for AUTO-CI, AUTO-CI UHF-CCSDT 
  Emily Kempfer          : AUTO-CI RHF CISDT and CCSDT, approximate NEVPT4
  Christian Kollmar      : KDIIS, OOCD, Brueckner-CCSD(T), CCSD density, CASPT2, CASPT2-K, improved NEVPT2 
  Axel Koslowski         : Symmetry handling                             
  Simone Kossmann        : meta-GGA functionals, TD-DFT gradient, OOMP2, (MP2 Hessian; deprecated post 5.0) 
  Lucas Lang             : DCDCAS, Hyperfine gauge corrections, ICE-SOC+SSC
  Marvin Lechner         : AUTO-CI (C++ implementation), FIC-MRCC        
  Spencer Leger          : CASSCF response                               
  Dagmar Lenk            : GEPOL surface, SMD, ORCA-2-JSON               
  Dimitrios Liakos       : Extrapolation schemes; Compound Job, Property file
  Dimitrios Manganas     : Further ROCIS development; embedding schemes. LFT, Crystal Embedding 
  Dimitrios Pantazis     : SARC Basis sets                               
  Anastasios Papadopoulos: AUTO-CI, single reference methods and gradients 
  Taras Petrenko         : pre 6.0 DFT Hessian and TD-DFT gradient,  ECA, NRVS 
  Petra Pikulova         : Analytic Raman intensities                    
  Peter Pinski           : DLPNO-MP2, DLPNO-MP2 Gradient                 
  Shashank Vittal Rao    : ES-AILFT, MagRelax                            
  Christoph Reimann      : Effective Core Potentials                     
  Marius Retegan         : Local ZFS, SOC                                
  Christoph Riplinger    : Optimizer, TS searches, QM/MM, DLPNO-CCSD(T), (RO)-DLPNO pert. Triples 
  Michael Roemelt        : Original ROCIS implementation, recursive CI coupling coefficients
  Masaaki Saitow         : Open-shell DLPNO-CCSD energy and density      
  Barbara Sandhoefer     : DKH picture change effects                    
  Yorick L. A. Schmerwitz: GMF and freeze-and-release deltaSCF, NEB S-IDPP initial path                    
  Kantharuban Sivalingam : CASSCF convergence/infrastructure, NEVPT2, NEVPT3, NEVPT4(SD), FIC-MRCI and CEPA variants
  Bernardo de Souza      : ESD, SOC TD-DFT                               
  Georgi L. Stoychev     : AutoAux, RI-MP2 NMR, DLPNO-MP2 response, X2C  
  Van Anh Tran           : RI-MP2 g-tensors                              
  Willem Van den Heuvel  : Paramagnetic NMR                              
  Zikuan Wang            : NOTCH, Electric field optimization            
  Frank Wennmohs         : Technical directorship and infrastructure     
  Hang Xu                : AUTO-CI-Response properties                   
                                                                         
[FACCTs GmbH]                                                            
  Markus Bursch, Nicolas Foglia, Miquel Garcia-Rates, Ingolf Harden, Hagen Neugebauer, Anastasios Papadopoulos, 
  Christoph Riplinger, Bernardo de Souza, Georgi L. Stoychev                                                    
                                                                 
  APM, various basis sets, CI-OPT, improved COSX, DLPNO-Multilevel,           
  DOCKER, DRACO, updates on ESD, Fragmentator, GOAT, IRC, LR-CPCM, L-BFGS, MBIS, meta-GGA TD-DFT gradient, ML-optimized integration grids, 
  MM, NACMEs, nearIR, NEB, NEB-TS, NL-DFT gradient (VV10), 2- and 3-layer-ONIOM, interface openCOSMO-RS, QMMM,   
  Crystal-QMMM, RESP, rigid body optimization, SF, symmetry and pop. for TD-DFT, various functionals, SOLVATOR                                   
                                                                         
[Other institutions]                                                     
  V. Asgeirsson          : NEB                                           
  Christoph Bannwarth    : sTDA-DFT, sTD-DFT, PBEh-3c, B97-3c, D3        
  Giovanni Bistoni       : ETS/NOCV, ADLD/ADEX, COVALED                  
  Martin Brehm           : Molecular dynamics                            
  Ronald Cardenas        : ETS/NOCV                                      
  Martina Colucci        : COVALED                                       
  Sebastian Ehlert       : rSCAN, r2SCAN, r2SCAN-3c, D4, dhf basis sets  
  Marvin Friede          : D4 for Fr, Ra, Ac-Lr                          
  Lars Goerigk           : TD-DFT with DH, B97 family of functionals     
  Stefan Grimme          : VdW corrections, initial TS optimization, DFT functionals, gCP, sTDA/sTD-DF 
  Waldemar Hujo          : DFT-NL                                        
  H. Jonsson             : NEB                                           
  Holger Kruse           : gCP                                           
  Marcel Mueller         : wB97X-3c, vDZP basis set                      
  Hagen Neugebauer       : wr2SCAN, Native XTB                           
  Gianluca Regni         : ADLD/ADEX                                     
  Tobias Risthaus        : pre 6.0 range-separated hybrid DFT and stability analysis
  Lukas Wittmann         : regularized MP2, r2SCAN double-hybrids, wr2SCAN        
                                                                         
We gratefully acknowledge several colleagues who have allowed us to      
interface, adapt or use parts of their codes:                            
  Ed Valeev, F. Pavosevic, A. Kumar             : LibInt (2-el integral package), F12 methods 
  Garnet Chan, S. Sharma, J. Yang, R. Olivares  : DMRG                   
  Ulf Ekstrom                                   : XCFun DFT Library      
  Mihaly Kallay                                 : mrcc  (arbitrary order and MRCC methods)
  Frank Weinhold                                : gennbo (NPA and NBO analysis)           
  Simon Mueller                                 : openCOSMO-RS                            
  Christopher J. Cramer and Donald G. Truhlar   : smd solvation model                     
  S Lehtola, MJT Oliveira, MAL Marques          : LibXC Library                           
  Liviu Ungur et al                             : ANISO software                          


 Your calculation uses the libint2 library for the computation of 2-el integrals
 For citations please refer to: http://libint.valeyev.net

 Your ORCA version has been built with support for libXC version: 7.0.0
 For citations please refer to: https://libxc.gitlab.io

 This ORCA versions uses:
   CBLAS   interface :  Fast vector & matrix operations
   LAPACKE interface :  Fast linear algebra routines
   SCALAPACK package :  Parallel linear algebra routines
   Shared memory     :  Shared parallel matrices
   BLAS/LAPACK       :  OpenBLAS 0.3.29  USE64BITINT DYNAMIC_ARCH NO_AFFINITY Prescott SINGLE_THREADED
        Core in use  :  Prescott
   Copyright (c) 2011-2014, The OpenBLAS Project


  ***********************************
  * Starting time: Fri Aug  8 17:42:44 2025
  * Host name:     cuda5
  * Process ID:    118603
  * Working dir.:  /local/scratch/mehlhorn/61809
  ***********************************



***************************************
The coordinates will be read from file: start.xyz
***************************************


Your calculation utilizes the geometrical counterpoise correction gCP
Please cite in your paper:
H.Kruse, S. Grimme J.Chem.Phys., 136, (2012), 154101 
   

Your calculation utilizes the atom-pairwise dispersion correction
with the Becke-Johnson damping scheme (D3BJ)


Warning: RI is on but no J-basis has been assigned. Assigning Def2/J (nothing to worry about!)
================================================================================

cite the ECPs for Zr [Def2-ECP] as follows:
Ce-Yb(ecp-28): M. Dolg, H. Stoll, H.Preuss, J. Chem. Phys., 1989, 90, 1730-1734.
Y-Cd(ecp-28), Hf-Hg(ecp-46): D. Andrae,U. Haeussermann, M. Dolg, H. Stoll, H. Preuss, Theor. Chim. Acta, 1990, 77, 123-141.
In-Sb(ecp-28), Tl-Bi(ecp-46): B. Metz, H. Stoll, M. Dolg, J. Chem. Phys., 2000, 113, 2563-2569.
Te-Xe(ecp-28), Po-Rn(ecp-46): K. A. Peterson, D. Figgen, E. Goll, H. Stoll, M. Dolg, J. Chem. Phys., 2003, 119, 11113-11123.
Rb(ecp-28), Cs(ecp-46): T. Leininger, A. Nicklass, W. Kuechle, H. Stoll, M. Dolg, A. Bergner, Chem. Phys. Lett., 1996, 255, 274-280.
Sr(ecp-28), Ba(ecp-46): M. Kaupp, P. V. Schleyer, H. Stoll and H. Preuss, J. Chem. Phys., 1991, 94, 1360-1366.
La(ecp-46): M. Dolg, H. Stoll, A. Savin, H. Preuss, Theor. Chim. Acta, 1989, 75, 173-194.
Lu(ecp-28): X. Cao, M. Dolg, J. Chem. Phys., 2001, 115, 7348-7355.

ECP parameters for Zr [Def2-ECP] have been obtained from:
TURBOMOLE (7.0.2)

----- Orbital basis set information -----
Your calculation utilizes the basis: def2-SV(P)
   F. Weigend and R. Ahlrichs, Phys. Chem. Chem. Phys. 7, 3297 (2005).

----- AuxJ basis set information -----
Your calculation utilizes the auxiliary basis: def2/J
   H-Rn: F. Weigend, Phys. Chem. Chem. Phys. 8, 1057 (2006).
   Fr-Lr: K. Eichkorn, F. Weigend, O. Treutler, R. Ahlrichs; Theor. Chem. Acc. 97, 119 (1997).

================================================================================
                                        WARNINGS
                       Please study these warnings very carefully!
================================================================================


WARNING: Gradients are needed
  ===> : At least TightSCF should be used for SCF convergence

WARNING: Geometry Optimization
  ===> : Switching off AutoStart
         For restart on a previous wavefunction, please use MOREAD

================================================================================
                                       INPUT FILE
================================================================================
NAME = run.inp
|  1> # Geometry optimization for (AlH3)n cluster
|  2> 
|  3> %pal nprocs 24  end
|  4> 
|  5> %geom MaxIter 500 end
|  6> 
|  7> 
|  8> ! PBE def2-SV(P)
|  9> ! RKS	# closed shell for AlH3
| 10> ! D3    #  dispersion correction
| 11> ! gCP(DFT/SV(P))
| 12> ! Freq 	# Frequency analysis to check the stabiltity of the structures
| 13> 
| 14> ! NoPop # population analysis not necessary	
| 15> 
| 16> ! DEFGRID2
| 17> ! NormalSCF
| 18> ! SloppyOpt
| 19> 
| 20> ! SmallPrint
| 21> 
| 22> 
| 23> * xyzFile 0 1 start.xyz # only maingroup elements H and Al so there should be no net spin
| 24> 
| 25>                          ****END OF INPUT****
================================================================================

                       *****************************
                       * Geometry Optimization Run *
                       *****************************

Geometry optimization settings:
Update method            Update   .... BFGS
Choice of coordinates    CoordSys .... (2022) Redundant Internals
Initial Hessian          InHess   .... Almloef's Model
Max. no of cycles        MaxIter  .... 500

Convergence Tolerances:
Energy Change            TolE     ....  8.0000e-05 Eh
Max. Gradient            TolMAXG  ....  5.0000e-03 Eh/bohr
RMS Gradient             TolRMSG  ....  1.0000e-03 Eh/bohr
Max. Displacement        TolMAXD  ....  3.0000e-02 bohr
RMS Displacement         TolRMSD  ....  2.0000e-02 bohr
Strict Convergence                .... False

------------------------------------------------------------------------------
                        ORCA OPTIMIZATION COORDINATE SETUP
------------------------------------------------------------------------------

The optimization will be done in redundant internal coordinates (2022)
Making redundant internal coordinates   ...  (2022 redundants) done
Evaluating the initial hessian          ...  (Almloef) done
Evaluating the coordinates              ...  done
Calculating the B-matrix                .... done
Calculating the G-matrix                .... done
The number of degrees of freedom        ....  881

    -----------------------------------------------------------------
                    Redundant Internal Coordinates


    -----------------------------------------------------------------
         Definition                    Initial Value    Approx d2E/dq
    -----------------------------------------------------------------
      1. B(Zr  2,Zr  1)                  3.3775         0.043154   
      2. B(Zr  3,Zr  0)                  3.3859         0.041845   
      3. B(Zr  4,Zr  3)                  3.4331         0.035183   
      4. B(Zr  4,Zr  1)                  3.4034         0.039236   
      5. B(Zr  5,Zr  2)                  3.4335         0.035131   
      6. B(Zr  5,Zr  0)                  3.4138         0.037767   
      7. B(O   6,Zr  0)                  2.1041         0.410930   
      8. B(O   6,Zr  3)                  2.1240         0.381866   
      9. B(O   6,Zr  5)                  2.0756         0.456200   
     10. B(O   7,Zr  1)                  2.1119         0.399207   
     11. B(O   7,Zr  4)                  2.0722         0.461962   
     12. B(O   7,Zr  2)                  2.1194         0.388421   
     13. B(O   8,Zr  5)                  2.1021         0.413952   
     14. B(O   8,Zr  2)                  2.0873         0.437100   
     15. B(O   8,Zr  1)                  2.1567         0.338669   
     16. B(O   9,Zr  4)                  2.1024         0.413441   
     17. B(O   9,Zr  3)                  2.0881         0.435770   
     18. B(O   9,Zr  0)                  2.1523         0.344154   
     19. B(O  10,Zr  4)                  2.1441         0.354722   
     20. B(O  10,Zr  3)                  2.1653         0.328098   
     21. B(O  10,Zr  1)                  2.1733         0.318617   
     22. B(O  11,Zr  5)                  2.1481         0.349492   
     23. B(O  11,Zr  0)                  2.1699         0.322606   
     24. B(O  11,Zr  2)                  2.1600         0.334630   
     25. B(O  12,Zr  0)                  1.9761         0.657636   
     26. B(O  13,Zr  0)                  1.9849         0.636521   
     27. B(O  14,Zr  0)                  2.0249         0.549675   
     28. B(O  15,Zr  0)                  2.0710         0.463955   
     29. B(O  16,Zr  1)                  2.0690         0.467441   
     30. B(O  17,Zr  1)                  2.0245         0.550467   
     31. B(O  18,Zr  1)                  1.9889         0.627372   
     32. B(O  19,Zr  1)                  1.9777         0.653705   
     33. B(O  20,Zr  2)                  1.9904         0.623915   
     34. B(O  21,Zr  2)                  1.9865         0.632902   
     35. B(O  22,Zr  2)                  1.9921         0.620065   
     36. B(O  23,Zr  2)                  2.0731         0.460361   
     37. B(O  24,Zr  3)                  2.0654         0.473673   
     38. B(O  25,Zr  3)                  1.9884         0.628531   
     39. B(O  26,Zr  3)                  1.9953         0.612711   
     40. B(O  27,Zr  3)                  1.9921         0.620047   
     41. B(O  28,Zr  4)                  1.9875         0.630573   
     42. B(O  29,Zr  4)                  2.0479         0.505025   
     43. B(O  30,Zr  4)                  1.9714         0.668986   
     44. B(O  31,Zr  4)                  2.0653         0.473839   
     45. B(O  32,Zr  5)                  2.0644         0.475387   
     46. B(O  33,Zr  5)                  1.9717         0.668132   
     47. B(O  34,Zr  5)                  2.0617         0.480077   
     48. B(O  35,Zr  5)                  1.9868         0.632264   
     49. B(C  36,O  33)                  1.2989         0.782063   
     50. B(C  36,O  12)                  1.2985         0.783215   
     51. B(C  37,O  25)                  1.3009         0.776204   
     52. B(C  37,O  13)                  1.3021         0.772840   
     53. B(C  38,O  21)                  1.2950         0.793200   
     54. B(C  38,O  14)                  1.2953         0.792461   
     55. B(C  39,O  15)                  1.2982         0.784006   
     56. B(C  39,O  29)                  1.3002         0.778161   
     57. B(C  40,O  34)                  1.2999         0.779192   
     58. B(C  40,O  16)                  1.2980         0.784588   
     59. B(C  41,O  26)                  1.2950         0.793194   
     60. B(C  41,O  17)                  1.2951         0.792876   
     61. B(C  42,O  22)                  1.3014         0.774979   
     62. B(C  42,O  18)                  1.3020         0.773168   
     63. B(C  43,O  19)                  1.2985         0.783305   
     64. B(C  43,O  30)                  1.2982         0.783941   
     65. B(C  44,O  35)                  1.3015         0.774607   
     66. B(C  44,O  20)                  1.3015         0.774663   
     67. B(C  45,O  31)                  1.2972         0.786816   
     68. B(C  45,O  23)                  1.2969         0.787779   
     69. B(C  46,O  32)                  1.2982         0.784158   
     70. B(C  46,O  24)                  1.2974         0.786310   
     71. B(C  47,O  28)                  1.3018         0.773772   
     72. B(C  47,O  27)                  1.3016         0.774397   
     73. B(H  48,C  41)                  1.0859         0.365503   
     74. B(H  49,C  42)                  1.0922         0.357181   
     75. B(H  50,C  38)                  1.0861         0.365307   
     76. B(H  51,C  37)                  1.0922         0.357206   
     77. B(H  52,C  43)                  1.0899         0.360229   
     78. B(H  53,C  47)                  1.0916         0.357940   
     79. B(H  54,C  39)                  1.0869         0.364177   
     80. B(H  55,C  45)                  1.0847         0.367148   
     81. B(H  56,C  40)                  1.0866         0.364586   
     82. B(H  57,C  46)                  1.0855         0.366067   
     83. B(H  58,C  36)                  1.0899         0.360265   
     84. B(H  59,C  44)                  1.0915         0.358162   
     85. B(Al 61,Al 60)                  2.7476         0.209351   
     86. B(H  62,H  58)                  3.1504         0.010000   
     87. B(H  62,Al 61)                  1.6741         0.295197   
     88. B(H  63,O  12)                  2.8554         0.010000   
     89. B(H  63,O  13)                  2.5692         0.010000   
     90. B(H  63,Al 61)                  1.6108         0.372419   
     91. B(H  64,C  37)                  3.0196         0.010000   
     92. B(H  64,O  13)                  3.0798         0.010000   
     93. B(H  64,H  51)                  2.4950         0.010000   
     94. B(H  64,Al 61)                  1.6744         0.294859   
     95. B(H  64,Al 60)                  1.6739         0.295390   
     96. B(H  65,O  25)                  3.1093         0.010000   
     97. B(H  65,C  37)                  2.9056         0.010000   
     98. B(H  65,H  51)                  2.8382         0.010000   
     99. B(H  65,O  24)                  2.7546         0.010000   
    100. B(H  65,Al 60)                  1.6105         0.372950   
    101. B(H  66,H  57)                  3.0507         0.010000   
    102. B(H  66,Al 60)                  1.6737         0.295677   
    103. B(H  67,Al 61)                  1.6091         0.374873   
    104. B(Al 68,H  66)                  1.6706         0.299064   
    105. B(Al 68,H  62)                  1.6706         0.298977   
    106. B(Al 68,Al 61)                  2.7339         0.220149   
    107. B(Al 68,Al 60)                  2.7313         0.222276   
    108. B(H  69,Al 68)                  1.6090         0.375007   
    109. B(H  70,H  58)                  3.1366         0.010000   
    110. B(H  70,H  57)                  3.0032         0.010000   
    111. B(H  70,O   6)                  2.9448         0.010000   
    112. B(H  70,O  24)                  2.8920         0.010000   
    113. B(H  70,O  12)                  2.7140         0.010000   
    114. B(H  70,O  33)                  2.7034         0.010000   
    115. B(H  70,O  13)                  2.6416         0.010000   
    116. B(H  70,C  36)                  2.5943         0.010000   
    117. B(H  70,C  46)                  2.5544         0.010000   
    118. B(H  70,O  32)                  2.5484         0.010000   
    119. B(H  70,Al 68)                  1.6090         0.374965   
    120. B(H  71,Al 60)                  1.6092         0.374640   
    121. A(O  11,Zr  0,O  14)           72.5593         0.470840   
    122. A(Zr  5,Zr  0,O  12)           74.1090         0.362965   
    123. A(Zr  5,Zr  0,O   9)           91.6400         0.325615   
    124. A(O  11,Zr  0,O  15)          134.1139         0.456466   
    125. A(O  12,Zr  0,O  13)           83.2650         0.552778   
    126. A(O  13,Zr  0,O  14)          135.2550         0.534331   
    127. A(O  13,Zr  0,O  15)           81.0156         0.517566   
    128. A(Zr  5,Zr  0,O  14)          108.6924         0.352068   
    129. A(Zr  3,Zr  0,O  13)           70.9404         0.367334   
    130. A(Zr  3,Zr  0,O   6)           36.9949         0.341088   
    131. A(Zr  3,Zr  0,O  11)           95.9094         0.327652   
    132. A(Zr  3,Zr  0,O  15)           94.9101         0.348109   
    133. A(O   9,Zr  0,O  11)           95.8528         0.432444   
    134. A(O   6,Zr  0,O  14)          138.3974         0.492338   
    135. A(O  11,Zr  0,O  13)          144.3367         0.483731   
    136. A(O   6,Zr  0,O  11)           66.7688         0.446509   
    137. A(O  12,Zr  0,O  14)           82.5216         0.537633   
    138. A(O   6,Zr  0,O  12)           97.6727         0.509045   
    139. A(Zr  5,Zr  0,O  11)           37.5360         0.322177   
    140. A(Zr  3,Zr  0,O  12)          127.1346         0.369397   
    141. A(Zr  5,Zr  0,O  15)          159.2830         0.342165   
    142. A(O   6,Zr  0,O   9)           65.2729         0.451779   
    143. A(O   9,Zr  0,O  14)          111.9007         0.476470   
    144. A(O  12,Zr  0,O  15)          126.2594         0.520744   
    145. A(Zr  3,Zr  0,O  14)          146.4186         0.358245   
    146. A(O   9,Zr  0,O  12)          162.6918         0.492520   
    147. A(O  11,Zr  0,O  12)           78.9481         0.486657   
    148. A(O   6,Zr  0,O  13)           85.5117         0.505954   
    149. A(O   6,Zr  0,O  15)          131.5169         0.477154   
    150. A(Zr  5,Zr  0,O  13)          107.7044         0.360949   
    151. A(O  14,Zr  0,O  15)           73.9925         0.503571   
    152. A(Zr  3,Zr  0,O   9)           36.3646         0.331170   
    153. A(Zr  5,Zr  0,O   6)           34.9629         0.335305   
    154. A(O   9,Zr  0,O  13)           92.0499         0.489550   
    155. A(Zr  3,Zr  0,Zr  5)           71.3377         0.253419   
    156. A(O   9,Zr  0,O  15)           68.9191         0.461883   
    157. A(Zr  2,Zr  1,O   8)           36.5574         0.331980   
    158. A(Zr  2,Zr  1,Zr  4)           71.9910         0.256005   
    159. A(Zr  2,Zr  1,O  19)          126.6328         0.370977   
    160. A(O   7,Zr  1,O  16)          131.2006         0.475273   
    161. A(O  16,Zr  1,O  17)           74.1109         0.504409   
    162. A(Zr  2,Zr  1,O  16)           94.7367         0.350364   
    163. A(Zr  4,Zr  1,O  18)          106.9967         0.362410   
    164. A(Zr  2,Zr  1,O  18)           70.8053         0.368365   
    165. A(Zr  2,Zr  1,O   7)           37.1160         0.341194   
    166. A(O  17,Zr  1,O  18)          135.3328         0.533019   
    167. A(Zr  4,Zr  1,O  19)           73.6531         0.364966   
    168. A(O   8,Zr  1,O  17)          112.0351         0.475189   
    169. A(O   8,Zr  1,O  10)           96.3103         0.430235   
    170. A(O  10,Zr  1,O  16)          134.1340         0.456053   
    171. A(Zr  2,Zr  1,O  10)           96.5435         0.328646   
    172. A(O  10,Zr  1,O  18)          143.6798         0.481333   
    173. A(O   7,Zr  1,O  18)           86.1895         0.501876   
    174. A(O   8,Zr  1,O  19)          162.5175         0.490510   
    175. A(O  18,Zr  1,O  19)           81.9369         0.550634   
    176. A(O  16,Zr  1,O  18)           81.7649         0.516888   
    177. A(O   7,Zr  1,O  19)           98.1705         0.505736   
    178. A(Zr  4,Zr  1,O  17)          108.4972         0.354436   
    179. A(O  17,Zr  1,O  19)           82.8958         0.537171   
    180. A(Zr  4,Zr  1,O  10)           37.6710         0.323538   
    181. A(Zr  4,Zr  1,O  16)          159.7899         0.344793   
    182. A(Zr  2,Zr  1,O  17)          146.8220         0.360217   
    183. A(O   8,Zr  1,O  18)           92.5428         0.486790   
    184. A(Zr  4,Zr  1,O   8)           92.3549         0.326800   
    185. A(O   7,Zr  1,O  17)          137.5818         0.489835   
    186. A(O  10,Zr  1,O  17)           72.3386         0.469891   
    187. A(O   7,Zr  1,O  10)           66.3636         0.443176   
    188. A(O   8,Zr  1,O  16)           68.7199         0.461159   
    189. A(Zr  4,Zr  1,O   7)           35.1817         0.335819   
    190. A(O  16,Zr  1,O  19)          126.2440         0.520889   
    191. A(O  10,Zr  1,O  19)           79.1464         0.485001   
    192. A(O   7,Zr  1,O   8)           64.7898         0.448102   
    193. A(Zr  5,Zr  2,O  22)          105.2193         0.354950   
    194. A(O   7,Zr  2,O   8)           65.8695         0.467099   
    195. A(O  21,Zr  2,O  22)          135.1485         0.546054   
    196. A(O  20,Zr  2,O  22)           81.5820         0.544577   
    197. A(O   8,Zr  2,O  23)          127.2408         0.481923   
    198. A(Zr  5,Zr  2,O   8)           35.0981         0.334713   
    199. A(Zr  1,Zr  2,O  21)          143.0202         0.368920   
    200. A(O   8,Zr  2,O  22)           81.2655         0.509322   
    201. A(Zr  1,Zr  2,O  22)           73.5702         0.367625   
    202. A(O  21,Zr  2,O  23)           76.7635         0.516261   
    203. A(Zr  1,Zr  2,O  11)           94.4654         0.331321   
    204. A(O  11,Zr  2,O  20)           76.6805         0.485216   
    205. A(O  20,Zr  2,O  23)          131.5672         0.514880   
    206. A(O  11,Zr  2,O  23)          137.6508         0.458870   
    207. A(O  22,Zr  2,O  23)           80.4103         0.514284   
    208. A(O   8,Zr  2,O  20)           93.4583         0.509911   
    209. A(Zr  5,Zr  2,O  23)          156.0979         0.337614   
    210. A(O  20,Zr  2,O  21)           85.4529         0.546695   
    211. A(O   7,Zr  2,O  23)           69.8872         0.471562   
    212. A(Zr  1,Zr  2,O   7)           36.9636         0.339636   
    213. A(Zr  5,Zr  2,O   7)           86.2112         0.328234   
    214. A(O   7,Zr  2,O  20)          158.1673         0.498812   
    215. A(O   8,Zr  2,O  11)           68.1838         0.454555   
    216. A(O  11,Zr  2,O  21)           75.1601         0.486501   
    217. A(O   7,Zr  2,O  11)           88.5135         0.444915   
    218. A(O   7,Zr  2,O  21)          106.4119         0.500141   
    219. A(Zr  1,Zr  2,O   8)           37.9844         0.346424   
    220. A(Zr  1,Zr  2,O  23)           89.3125         0.349463   
    221. A(O   7,Zr  2,O  22)          101.0610         0.498238   
    222. A(O   8,Zr  2,O  21)          142.5011         0.511276   
    223. A(Zr  5,Zr  2,O  20)           72.2820         0.355323   
    224. A(Zr  5,Zr  2,O  21)          111.2640         0.356186   
    225. A(Zr  1,Zr  2,O  20)          127.2996         0.368016   
    226. A(Zr  1,Zr  2,Zr  5)           70.7015         0.251879   
    227. A(O  11,Zr  2,O  22)          140.8837         0.484661   
    228. A(Zr  5,Zr  2,O  11)           37.0374         0.320297   
    229. A(O   9,Zr  3,O  27)           93.7091         0.509029   
    230. A(O   6,Zr  3,O  10)           90.4632         0.441968   
    231. A(Zr  0,Zr  3,O  10)           94.5301         0.328565   
    232. A(Zr  4,Zr  3,O  10)           36.9748         0.319345   
    233. A(O   6,Zr  3,O  24)           69.9773         0.472558   
    234. A(O  24,Zr  3,O  27)          130.4436         0.517034   
    235. A(Zr  0,Zr  3,O  27)          127.1771         0.365687   
    236. A(O  10,Zr  3,O  27)           76.3336         0.482897   
    237. A(O  24,Zr  3,O  26)           75.8697         0.515882   
    238. A(O  25,Zr  3,O  26)          136.1463         0.544107   
    239. A(O  10,Zr  3,O  26)           74.3975         0.481837   
    240. A(O   6,Zr  3,O  26)          107.0509         0.495565   
    241. A(Zr  4,Zr  3,O  26)          110.5023         0.354322   
    242. A(Zr  0,Zr  3,O  26)          142.9374         0.364943   
    243. A(O   6,Zr  3,O   9)           66.0513         0.465385   
    244. A(O  10,Zr  3,O  25)          140.1306         0.484111   
    245. A(O   9,Zr  3,O  25)           81.0608         0.510323   
    246. A(Zr  4,Zr  3,O   9)           35.1260         0.334626   
    247. A(Zr  4,Zr  3,O  25)          104.6426         0.355857   
    248. A(Zr  0,Zr  3,O  25)           73.4968         0.366539   
    249. A(O   9,Zr  3,O  24)          128.7827         0.484194   
    250. A(Zr  4,Zr  3,O  24)          157.3365         0.339307   
    251. A(Zr  0,Zr  3,O  24)           91.1392         0.349327   
    252. A(O  25,Zr  3,O  27)           81.2671         0.545334   
    253. A(O  26,Zr  3,O  27)           85.2359         0.542709   
    254. A(O   6,Zr  3,O  27)          159.0764         0.496662   
    255. A(O   9,Zr  3,O  10)           68.1171         0.452676   
    256. A(O   9,Zr  3,O  26)          141.5873         0.507899   
    257. A(O  24,Zr  3,O  25)           81.7880         0.518352   
    258. A(Zr  0,Zr  3,O   6)           36.5902         0.336937   
    259. A(Zr  0,Zr  3,Zr  4)           70.5756         0.250802   
    260. A(Zr  4,Zr  3,O  27)           72.2193         0.355037   
    261. A(Zr  4,Zr  3,O   6)           87.4348         0.327394   
    262. A(O  10,Zr  3,O  24)          137.3524         0.459607   
    263. A(O   6,Zr  3,O  25)           99.7785         0.497918   
    264. A(Zr  0,Zr  3,O   9)           37.6738         0.344459   
    265. A(Zr  1,Zr  4,O  29)          144.4844         0.349310   
    266. A(O   9,Zr  4,O  10)           68.2633         0.454775   
    267. A(O   7,Zr  4,O  10)           67.5871         0.464078   
    268. A(O  10,Zr  4,O  29)          140.2178         0.471721   
    269. A(Zr  3,Zr  4,O  29)          104.1061         0.342965   
    270. A(Zr  1,Zr  4,O  31)           93.2095         0.345581   
    271. A(O   9,Zr  4,O  30)          145.2100         0.511257   
    272. A(O   7,Zr  4,O  30)           98.9842         0.521997   
    273. A(O  10,Zr  4,O  30)           81.1632         0.496868   
    274. A(O   9,Zr  4,O  29)           71.9713         0.485223   
    275. A(O  30,Zr  4,O  31)           81.3974         0.524492   
    276. A(O  10,Zr  4,O  31)          131.3228         0.466240   
    277. A(Zr  3,Zr  4,O  31)          155.5680         0.339327   
    278. A(Zr  1,Zr  4,Zr  3)           70.7691         0.248461   
    279. A(O  29,Zr  4,O  30)          135.8111         0.530820   
    280. A(Zr  1,Zr  4,O  30)           74.7636         0.366413   
    281. A(O   7,Zr  4,O  29)          110.2037         0.495301   
    282. A(Zr  1,Zr  4,O  10)           38.2764         0.329306   
    283. A(O  28,Zr  4,O  30)           82.9559         0.553589   
    284. A(O   7,Zr  4,O  28)          156.2665         0.516240   
    285. A(O   9,Zr  4,O  31)          131.4024         0.479548   
    286. A(Zr  3,Zr  4,O  10)           37.4033         0.323448   
    287. A(Zr  3,Zr  4,O   9)           34.8519         0.331719   
    288. A(Zr  1,Zr  4,O   9)           90.0023         0.337784   
    289. A(Zr  1,Zr  4,O   7)           35.9601         0.344111   
    290. A(O  29,Zr  4,O  31)           77.9567         0.497642   
    291. A(O  28,Zr  4,O  31)          132.4793         0.518702   
    292. A(O   7,Zr  4,O  31)           70.8480         0.489481   
    293. A(Zr  3,Zr  4,O  30)          110.5415         0.359651   
    294. A(Zr  3,Zr  4,O  28)           71.4207         0.356053   
    295. A(Zr  1,Zr  4,O  28)          125.0345         0.362725   
    296. A(Zr  3,Zr  4,O   7)           85.9405         0.337893   
    297. A(O   9,Zr  4,O  28)           80.6784         0.505643   
    298. A(O   7,Zr  4,O   9)           84.7547         0.477311   
    299. A(O  10,Zr  4,O  28)           89.5499         0.491445   
    300. A(O  28,Zr  4,O  29)           82.9473         0.524946   
    301. A(O  32,Zr  5,O  35)          131.5829         0.519280   
    302. A(O   8,Zr  5,O  35)           80.9628         0.506012   
    303. A(O   6,Zr  5,O  32)           70.9231         0.488640   
    304. A(Zr  2,Zr  5,O  33)          110.1562         0.359482   
    305. A(Zr  2,Zr  5,O  34)          103.1706         0.339985   
    306. A(O   8,Zr  5,O  33)          144.8064         0.511253   
    307. A(O  32,Zr  5,O  33)           83.5302         0.524687   
    308. A(O   6,Zr  5,O  33)           96.5427         0.520644   
    309. A(Zr  0,Zr  5,O  33)           73.9446         0.363949   
    310. A(O   8,Zr  5,O  32)          129.9147         0.479946   
    311. A(Zr  0,Zr  5,O  34)          145.2889         0.344129   
    312. A(Zr  2,Zr  5,O  32)          155.6255         0.339428   
    313. A(O   8,Zr  5,O  34)           71.2006         0.480816   
    314. A(Zr  2,Zr  5,O   6)           87.1300         0.337103   
    315. A(O  11,Zr  5,O  34)          139.2980         0.466088   
    316. A(Zr  0,Zr  5,O   6)           35.5138         0.341200   
    317. A(Zr  0,Zr  5,Zr  2)           70.5506         0.247037   
    318. A(O  11,Zr  5,O  35)           89.4488         0.490338   
    319. A(O  34,Zr  5,O  35)           82.3624         0.520237   
    320. A(O  33,Zr  5,O  35)           82.7142         0.553737   
    321. A(O  33,Zr  5,O  34)          136.6871         0.525656   
    322. A(O  32,Zr  5,O  34)           76.7210         0.493282   
    323. A(Zr  0,Zr  5,O  32)           95.4123         0.343563   
    324. A(Zr  2,Zr  5,O  35)           71.6245         0.356125   
    325. A(Zr  0,Zr  5,O  35)          124.3762         0.360536   
    326. A(O   8,Zr  5,O  11)           68.1442         0.453650   
    327. A(O   6,Zr  5,O  11)           67.6651         0.461759   
    328. A(O   6,Zr  5,O  35)          156.8233         0.515286   
    329. A(Zr  2,Zr  5,O  11)           37.2758         0.322583   
    330. A(O   6,Zr  5,O  34)          112.2681         0.489529   
    331. A(Zr  0,Zr  5,O  11)           37.9839         0.326440   
    332. A(O  11,Zr  5,O  32)          133.3402         0.465251   
    333. A(O   6,Zr  5,O   8)           86.8346         0.476318   
    334. A(O  11,Zr  5,O  33)           80.7665         0.495381   
    335. A(Zr  2,Zr  5,O   8)           34.8149         0.331706   
    336. A(Zr  0,Zr  5,O   8)           90.1015         0.335714   
    337. A(Zr  3,O   6,Zr  5)          141.5101         0.469309   
    338. A(Zr  0,O   6,Zr  5)          109.5233         0.475676   
    339. A(Zr  3,O   6,H  70)          110.5149         0.144991   
    340. A(Zr  0,O   6,H  70)           83.4501         0.145928   
    341. A(Zr  0,O   6,Zr  3)          106.4149         0.460418   
    342. A(Zr  5,O   6,H  70)           87.0534         0.147291   
    343. A(Zr  2,O   7,Zr  4)          143.9036         0.471863   
    344. A(Zr  1,O   7,Zr  4)          108.8583         0.474244   
    345. A(Zr  1,O   7,Zr  2)          105.9204         0.459417   
    346. A(Zr  1,O   8,Zr  2)          105.4583         0.455549   
    347. A(Zr  2,O   8,Zr  5)          110.0869         0.472586   
    348. A(Zr  1,O   8,Zr  5)          135.4492         0.451063   
    349. A(Zr  3,O   9,Zr  4)          110.0221         0.472214   
    350. A(Zr  0,O   9,Zr  4)          135.6038         0.452280   
    351. A(Zr  0,O   9,Zr  3)          105.9616         0.456631   
    352. A(Zr  3,O  10,Zr  4)          105.6219         0.436126   
    353. A(Zr  1,O  10,Zr  4)          104.0525         0.433830   
    354. A(Zr  1,O  10,Zr  3)          131.6955         0.427794   
    355. A(Zr  2,O  11,Zr  5)          105.6868         0.436508   
    356. A(Zr  0,O  11,Zr  5)          104.4801         0.433642   
    357. A(Zr  0,O  11,Zr  2)          131.9250         0.430269   
    358. A(H  63,O  12,H  70)           71.0084         0.100199   
    359. A(C  36,O  12,H  63)          116.2730         0.150292   
    360. A(Zr  0,O  12,H  63)           98.3420         0.157207   
    361. A(C  36,O  12,H  70)           70.7681         0.157938   
    362. A(Zr  0,O  12,H  70)           92.2153         0.165716   
    363. A(Zr  0,O  12,C  36)          131.8537         0.508848   
    364. A(Zr  0,O  13,C  37)          127.5474         0.504503   
    365. A(H  63,O  13,H  64)           53.5404         0.099482   
    366. A(C  37,O  13,H  64)           75.0950         0.139706   
    367. A(Zr  0,O  13,H  64)          156.8063         0.145181   
    368. A(H  64,O  13,H  70)           69.3230         0.098870   
    369. A(H  63,O  13,H  70)           76.7838         0.104091   
    370. A(C  37,O  13,H  70)          112.4698         0.161999   
    371. A(Zr  0,O  13,H  70)           94.1972         0.169881   
    372. A(C  37,O  13,H  63)          121.2955         0.166527   
    373. A(Zr  0,O  13,H  63)          108.0171         0.174897   
    374. A(Zr  0,O  14,C  38)          139.4234         0.493221   
    375. A(Zr  0,O  15,C  39)          129.1249         0.477061   
    376. A(Zr  1,O  16,C  40)          129.3390         0.477784   
    377. A(Zr  1,O  17,C  41)          138.9201         0.493401   
    378. A(Zr  1,O  18,C  42)          128.0481         0.503183   
    379. A(Zr  1,O  19,C  43)          132.6417         0.508290   
    380. A(Zr  2,O  20,C  44)          127.2990         0.502846   
    381. A(Zr  2,O  21,C  38)          138.6954         0.506416   
    382. A(Zr  2,O  22,C  42)          125.2644         0.502305   
    383. A(Zr  2,O  23,C  45)          135.9469         0.476799   
    384. A(H  65,O  24,H  70)           70.1995         0.099503   
    385. A(C  46,O  24,H  70)           62.0087         0.148509   
    386. A(Zr  3,O  24,H  70)          114.4155         0.150428   
    387. A(C  46,O  24,H  65)          104.7190         0.155710   
    388. A(Zr  3,O  24,H  65)          117.3534         0.157861   
    389. A(Zr  3,O  24,C  46)          133.8093         0.479145   
    390. A(Zr  3,O  25,C  37)          126.3290         0.503724   
    391. A(C  37,O  25,H  65)           68.8593         0.138526   
    392. A(Zr  3,O  25,H  65)          106.2515         0.143663   
    393. A(Zr  3,O  26,C  41)          139.0378         0.503364   
    394. A(Zr  3,O  27,C  47)          126.9644         0.502232   
    395. A(Zr  4,O  28,C  47)          128.6098         0.503734   
    396. A(Zr  4,O  29,C  39)          136.9913         0.483913   
    397. A(Zr  4,O  30,C  43)          131.3264         0.510566   
    398. A(Zr  4,O  31,C  45)          139.2192         0.479232   
    399. A(C  46,O  32,H  70)           75.5188         0.168140   
    400. A(Zr  5,O  32,H  70)           98.7229         0.170810   
    401. A(Zr  5,O  32,C  46)          139.0980         0.479222   
    402. A(Zr  5,O  33,C  36)          132.0319         0.510215   
    403. A(C  36,O  33,H  70)           71.1825         0.158525   
    404. A(Zr  5,O  33,H  70)           96.2211         0.166673   
    405. A(Zr  5,O  34,C  40)          137.3935         0.479528   
    406. A(Zr  5,O  35,C  44)          128.9110         0.504087   
    407. A(O  12,C  36,O  33)          127.5190         0.466157   
    408. A(H  58,C  36,H  70)          109.8491         0.146788   
    409. A(O  33,C  36,H  70)           80.5293         0.167972   
    410. A(O  12,C  36,H  70)           81.0300         0.167999   
    411. A(O  33,C  36,H  58)          116.2578         0.364891   
    412. A(O  12,C  36,H  58)          116.2064         0.364982   
    413. A(O  13,C  37,O  25)          126.7304         0.464381   
    414. A(H  51,C  37,H  64)           51.7261         0.129498   
    415. A(O  25,C  37,H  64)          136.8189         0.144356   
    416. A(O  13,C  37,H  64)           80.2776         0.144302   
    417. A(H  64,C  37,H  65)           51.2382         0.097966   
    418. A(H  51,C  37,H  65)           75.5868         0.133523   
    419. A(O  25,C  37,H  65)           86.4578         0.149858   
    420. A(O  13,C  37,H  65)          106.8764         0.149799   
    421. A(O  25,C  37,H  51)          116.4752         0.363890   
    422. A(O  13,C  37,H  51)          116.7930         0.363620   
    423. A(O  14,C  38,O  21)          128.9549         0.468373   
    424. A(O  21,C  38,H  50)          115.5242         0.366647   
    425. A(O  14,C  38,H  50)          115.5165         0.366588   
    426. A(O  15,C  39,O  29)          129.6863         0.465816   
    427. A(O  29,C  39,H  54)          115.2126         0.365253   
    428. A(O  15,C  39,H  54)          115.0980         0.365721   
    429. A(O  16,C  40,O  34)          129.6758         0.465993   
    430. A(O  34,C  40,H  56)          115.2099         0.365406   
    431. A(O  16,C  40,H  56)          115.1119         0.365838   
    432. A(O  17,C  41,O  26)          128.9101         0.468417   
    433. A(O  26,C  41,H  48)          115.5440         0.366680   
    434. A(O  17,C  41,H  48)          115.5385         0.366655   
    435. A(O  18,C  42,O  22)          126.6723         0.464283   
    436. A(O  22,C  42,H  49)          116.6612         0.363788   
    437. A(O  18,C  42,H  49)          116.6643         0.363642   
    438. A(O  30,C  43,H  52)          116.2304         0.365034   
    439. A(O  19,C  43,H  52)          116.2198         0.364983   
    440. A(O  19,C  43,O  30)          127.5498         0.466372   
    441. A(O  35,C  44,H  59)          116.3338         0.363929   
    442. A(O  20,C  44,H  59)          116.3241         0.363933   
    443. A(O  20,C  44,O  35)          127.3421         0.464406   
    444. A(O  31,C  45,H  55)          114.9060         0.366455   
    445. A(O  23,C  45,H  55)          114.9667         0.366532   
    446. A(O  23,C  45,O  31)          130.1211         0.467172   
    447. A(H  57,C  46,H  70)          103.7260         0.148954   
    448. A(O  32,C  46,H  70)           75.0053         0.170686   
    449. A(O  24,C  46,H  70)           91.3440         0.170737   
    450. A(O  32,C  46,H  57)          114.8914         0.366058   
    451. A(O  24,C  46,H  57)          115.0077         0.366230   
    452. A(O  24,C  46,O  32)          130.0510         0.466723   
    453. A(O  28,C  47,H  53)          116.3618         0.363823   
    454. A(O  27,C  47,H  53)          116.3123         0.363873   
    455. A(O  27,C  47,O  28)          127.3258         0.464285   
    456. A(H  64,H  51,H  65)           57.0348         0.093437   
    457. A(C  37,H  51,H  65)           82.5308         0.114899   
    458. A(C  37,H  51,H  64)          108.1738         0.123453   
    459. A(H  66,H  57,H  70)           50.2764         0.091437   
    460. A(C  46,H  57,H  66)          103.6186         0.110825   
    461. A(C  46,H  57,H  70)           55.7174         0.111705   
    462. A(H  62,H  58,H  70)           47.7930         0.091008   
    463. A(C  36,H  58,H  70)           51.0747         0.109248   
    464. A(C  36,H  58,H  62)           96.3542         0.109018   
    465. A(Al 68,Al 60,H  71)          117.6381         0.399684   
    466. A(H  66,Al 60,H  71)           99.6723         0.360691   
    467. A(H  65,Al 60,H  71)          126.9600         0.375350   
    468. A(H  64,Al 60,H  71)          101.5942         0.360632   
    469. A(Al 61,Al 60,H  71)          102.1519         0.395500   
    470. A(H  66,Al 60,Al 68)           35.2034         0.383478   
    471. A(H  65,Al 60,Al 68)          108.1382         0.399366   
    472. A(H  64,Al 60,Al 68)           91.4140         0.383413   
    473. A(Al 61,Al 60,Al 68)           59.8655         0.421206   
    474. A(H  65,Al 60,H  66)          102.9031         0.360413   
    475. A(H  64,Al 60,H  66)          125.9277         0.346462   
    476. A(Al 61,Al 60,H  66)           92.1539         0.379512   
    477. A(H  64,Al 60,H  65)          102.6279         0.360354   
    478. A(Al 61,Al 60,H  65)          123.9804         0.395186   
    479. A(Al 61,Al 60,H  64)           34.8610         0.379448   
    480. A(H  67,Al 61,Al 68)          117.0999         0.399052   
    481. A(H  64,Al 61,Al 68)           91.3124         0.382653   
    482. A(H  63,Al 61,Al 68)          108.9599         0.398592   
    483. A(H  62,Al 61,Al 68)           35.1339         0.382729   
    484. A(Al 60,Al 61,Al 68)           59.7711         0.420483   
    485. A(H  64,Al 61,H  67)          101.1824         0.360559   
    486. A(H  63,Al 61,H  67)          126.3826         0.375298   
    487. A(H  62,Al 61,H  67)           99.0119         0.360630   
    488. A(Al 60,Al 61,H  67)          101.4702         0.395543   
    489. A(H  63,Al 61,H  64)          103.7629         0.360156   
    490. A(H  62,Al 61,H  64)          125.6066         0.346263   
    491. A(Al 60,Al 61,H  64)           34.8493         0.379330   
    492. A(H  62,Al 61,H  63)          103.5051         0.360226   
    493. A(Al 60,Al 61,H  63)          125.4064         0.395088   
    494. A(Al 60,Al 61,H  62)           91.7495         0.379405   
    495. A(H  58,H  62,Al 68)           86.5249         0.111666   
    496. A(H  58,H  62,Al 61)          116.7659         0.111601   
    497. A(Al 61,H  62,Al 68)          109.6485         0.347072   
    498. A(O  12,H  63,O  13)           57.7494         0.101633   
    499. A(O  12,H  63,Al 61)          117.3872         0.142353   
    500. A(O  13,H  63,Al 61)          103.7073         0.156688   
    501. A(O  13,H  64,C  37)           24.6274         0.096477   
    502. A(O  13,H  64,H  51)           41.3329         0.095361   
    503. A(O  13,H  64,Al 61)           83.6986         0.130992   
    504. A(O  13,H  64,Al 60)          103.7706         0.131009   
    505. A(C  37,H  64,Al 61)          108.1464         0.134798   
    506. A(C  37,H  64,Al 60)           97.3888         0.134817   
    507. A(C  37,H  64,H  51)           20.1001         0.095938   
    508. A(H  51,H  64,Al 61)          119.7729         0.127963   
    509. A(H  51,H  64,Al 60)          106.0190         0.127979   
    510. A(Al 60,H  64,Al 61)          110.2897         0.346301   
    511. A(O  25,H  65,C  37)           24.6830         0.097022   
    512. A(O  25,H  65,H  51)           39.7437         0.093666   
    513. A(O  24,H  65,O  25)           53.4155         0.097767   
    514. A(O  25,H  65,Al 60)          128.0425         0.132213   
    515. A(C  37,H  65,H  51)           21.8824         0.094734   
    516. A(O  24,H  65,C  37)           66.6067         0.099773   
    517. A(C  37,H  65,Al 60)          103.4936         0.142100   
    518. A(O  24,H  65,H  51)           88.2275         0.095267   
    519. A(H  51,H  65,Al 60)           94.2842         0.119889   
    520. A(O  24,H  65,Al 60)          124.8142         0.147036   
    521. A(H  57,H  66,Al 68)           89.1208         0.113624   
    522. A(H  57,H  66,Al 60)          107.5925         0.113561   
    523. A(Al 60,H  66,Al 68)          109.5182         0.347183   
    524. A(H  69,Al 68,H  70)          141.5030         0.375763   
    525. A(H  66,Al 68,H  70)          103.2933         0.361446   
    526. A(H  62,Al 68,H  70)          101.8751         0.361428   
    527. A(Al 61,Al 68,H  70)           85.0113         0.399070   
    528. A(Al 60,Al 68,H  70)           86.1402         0.399745   
    529. A(H  66,Al 68,H  69)           97.2343         0.361453   
    530. A(H  62,Al 68,H  69)           96.6195         0.361435   
    531. A(Al 61,Al 68,H  69)          126.4643         0.399077   
    532. A(Al 60,Al 68,H  69)          126.7173         0.399753   
    533. A(H  62,Al 68,H  66)          117.8495         0.347833   
    534. A(Al 61,Al 68,H  66)           92.7049         0.383596   
    535. A(Al 60,Al 68,H  66)           35.2784         0.384238   
    536. A(Al 61,Al 68,H  62)           35.2176         0.383577   
    537. A(Al 60,Al 68,H  62)           92.3977         0.384218   
    538. A(Al 60,Al 68,Al 61)           60.3634         0.425009   
    539. A(H  57,H  70,H  58)          136.6775         0.091269   
    540. A(O   6,H  70,H  58)           93.8799         0.093175   
    541. A(O  24,H  70,H  58)          141.1448         0.093362   
    542. A(O  12,H  70,H  58)           39.8004         0.094058   
    543. A(O  33,H  70,H  58)           39.8533         0.094103   
    544. A(O  13,H  70,H  58)           96.9302         0.094372   
    545. A(C  36,H  70,H  58)           19.0762         0.094796   
    546. A(C  46,H  70,H  58)          130.1098         0.094991   
    547. A(O  32,H  70,H  58)          100.7186         0.094805   
    548. A(H  58,H  70,Al 68)           88.0155         0.113132   
    549. A(O   6,H  70,H  57)           77.4012         0.093664   
    550. A(O  24,H  70,H  57)           39.8771         0.093874   
    551. A(O  12,H  70,H  57)          140.5427         0.094651   
    552. A(O  33,H  70,H  57)          101.3584         0.094701   
    553. A(O  13,H  70,H  57)          113.3305         0.095002   
    554. A(C  36,H  70,H  57)          129.5557         0.095476   
    555. A(C  46,H  70,H  57)           20.5567         0.095694   
    556. A(O  32,H  70,H  57)           41.5018         0.095486   
    557. A(H  57,H  70,Al 68)           91.9767         0.115963   
    558. A(O   6,H  70,O  24)           48.6069         0.097967   
    559. A(O   6,H  70,O  12)           65.6293         0.099397   
    560. A(O   6,H  70,O  33)           64.5109         0.099489   
    561. A(O   6,H  70,O  13)           59.3278         0.100043   
    562. A(O   6,H  70,C  36)           74.8080         0.100915   
    563. A(O   6,H  70,C  46)           56.8481         0.101317   
    564. A(O   6,H  70,O  32)           51.2366         0.100933   
    565. A(O   6,H  70,Al 68)          166.3788         0.138608   
    566. A(O  12,H  70,O  24)          112.2557         0.099864   
    567. A(O  24,H  70,O  33)          103.9580         0.099960   
    568. A(O  13,H  70,O  24)           74.0286         0.100539   
    569. A(O  24,H  70,C  36)          122.5264         0.101449   
    570. A(O  24,H  70,C  46)           26.6472         0.101869   
    571. A(O  24,H  70,O  32)           50.7702         0.101468   
    572. A(O  24,H  70,Al 68)          125.8304         0.140834   
    573. A(O  12,H  70,O  33)           50.9389         0.101708   
    574. A(O  12,H  70,O  13)           58.8404         0.102379   
    575. A(O  12,H  70,C  36)           28.2020         0.103435   
    576. A(O  12,H  70,C  46)          120.8332         0.103922   
    577. A(O  12,H  70,O  32)          101.1326         0.103457   
    578. A(O  12,H  70,Al 68)          121.9008         0.149101   
    579. A(O  13,H  70,O  33)          102.0897         0.102497   
    580. A(O  33,H  70,C  36)           28.2882         0.103563   
    581. A(O  33,H  70,C  46)           90.5099         0.104054   
    582. A(O  32,H  70,O  33)           61.5188         0.103585   
    583. A(O  33,H  70,Al 68)          110.1791         0.149633   
    584. A(O  13,H  70,C  36)           86.7744         0.104331   
    585. A(O  13,H  70,C  46)           99.2326         0.104849   
    586. A(O  13,H  70,O  32)          108.9034         0.104355   
    587. A(O  13,H  70,Al 68)          133.8552         0.152834   
    588. A(C  36,H  70,C  46)          116.6169         0.106099   
    589. A(O  32,H  70,C  36)           88.8617         0.105566   
    590. A(C  36,H  70,Al 68)          106.6431         0.157872   
    591. A(O  32,H  70,C  46)           29.4759         0.106125   
    592. A(C  46,H  70,Al 68)          112.2280         0.160196   
    593. A(O  32,H  70,Al 68)          115.1584         0.157976   
    594. D(Zr  5,Zr  2,Zr  1,Zr  4)    104.4865         0.010000   
    595. D(O   7,Zr  2,Zr  1,Zr  4)     -5.9313         0.010000   
    596. D(Zr  5,Zr  2,Zr  1,O   7)    110.4179         0.010000   
    597. D(O   6,Zr  3,Zr  0,Zr  5)      8.4261         0.010000   
    598. D(Zr  4,Zr  3,Zr  0,Zr  5)   -104.8635         0.010000   
    599. D(Zr  4,Zr  3,Zr  0,O   6)   -113.2896         0.010000   
    600. D(O   7,Zr  4,Zr  1,Zr  2)      6.2130         0.010000   
    601. D(Zr  1,Zr  4,Zr  3,Zr  0)    103.2812         0.010000   
    602. D(Zr  3,Zr  4,Zr  1,Zr  2)   -104.4680         0.010000   
    603. D(Zr  3,Zr  4,Zr  1,O   7)   -110.6810         0.010000   
    604. D(O   7,Zr  4,Zr  3,Zr  0)     69.8618         0.010000   
    605. D(Zr  1,Zr  4,Zr  3,O   6)     70.0468         0.010000   
    606. D(Zr  2,Zr  5,Zr  0,O   6)    113.7909         0.010000   
    607. D(O   6,Zr  5,Zr  0,Zr  3)     -8.8514         0.010000   
    608. D(Zr  2,Zr  5,Zr  0,Zr  3)    104.9395         0.010000   
    609. D(Zr  0,Zr  5,Zr  2,O   7)    -68.9310         0.010000   
    610. D(Zr  0,Zr  5,Zr  2,Zr  1)   -103.3170         0.010000   
    611. D(O   6,Zr  5,Zr  2,Zr  1)    -71.1624         0.010000   
    612. D(Zr  0,O   6,Zr  5,O   8)    -94.6201         0.010000   
    613. D(Zr  5,O   6,Zr  3,Zr  0)   -158.4769         0.010000   
    614. D(Zr  3,O   6,Zr  5,Zr  0)    158.0751         0.010000   
    615. D(Zr  0,O   6,Zr  3,Zr  4)     60.1241         0.010000   
    616. D(Zr  3,O   6,Zr  0,O   9)    -30.4524         0.010000   
    617. D(Zr  0,O   6,Zr  5,Zr  2)    -59.7565         0.010000   
    618. D(Zr  3,O   6,Zr  0,Zr  5)   -165.9798         0.010000   
    619. D(Zr  5,O   6,Zr  0,Zr  3)    165.9798         0.010000   
    620. D(Zr  0,O   6,Zr  3,O   9)     31.2797         0.010000   
    621. D(Zr  1,O   7,Zr  2,Zr  5)    -62.4306         0.010000   
    622. D(Zr  1,O   7,Zr  2,O   8)    -32.7508         0.010000   
    623. D(Zr  4,O   7,Zr  1,Zr  2)   -170.1794         0.010000   
    624. D(Zr  2,O   7,Zr  1,O   8)     31.8783         0.010000   
    625. D(Zr  2,O   7,Zr  1,Zr  4)    170.1794         0.010000   
    626. D(Zr  4,O   7,Zr  2,Zr  1)    164.0994         0.010000   
    627. D(Zr  1,O   7,Zr  4,O   9)     97.2739         0.010000   
    628. D(Zr  2,O   7,Zr  4,Zr  1)   -163.8350         0.010000   
    629. D(Zr  1,O   7,Zr  4,Zr  3)     62.3227         0.010000   
    630. D(Zr  2,O   8,Zr  5,Zr  0)     54.1429         0.010000   
    631. D(Zr  5,O   8,Zr  2,Zr  1)   -152.6717         0.010000   
    632. D(Zr  1,O   8,Zr  2,O   7)     31.9080         0.010000   
    633. D(Zr  1,O   8,Zr  2,Zr  5)    152.6717         0.010000   
    634. D(Zr  1,O   8,Zr  5,Zr  2)   -140.8962         0.010000   
    635. D(Zr  1,O   8,Zr  5,Zr  0)    -86.7534         0.010000   
    636. D(Zr  5,O   8,Zr  1,Zr  2)    142.0775         0.010000   
    637. D(Zr  2,O   8,Zr  1,O   7)    -32.3463         0.010000   
    638. D(Zr  2,O   8,Zr  1,Zr  4)    -54.9032         0.010000   
    639. D(Zr  3,O   9,Zr  4,Zr  1)    -54.7996         0.010000   
    640. D(Zr  0,O   9,Zr  4,Zr  3)    142.2339         0.010000   
    641. D(Zr  4,O   9,Zr  3,Zr  0)    153.5348         0.010000   
    642. D(Zr  0,O   9,Zr  3,O   6)    -30.4248         0.010000   
    643. D(Zr  0,O   9,Zr  3,Zr  4)   -153.5348         0.010000   
    644. D(Zr  0,O   9,Zr  4,Zr  1)     87.4342         0.010000   
    645. D(Zr  3,O   9,Zr  0,O   6)     30.9550         0.010000   
    646. D(Zr  3,O   9,Zr  0,Zr  5)     54.6346         0.010000   
    647. D(Zr  4,O   9,Zr  0,Zr  3)   -143.2375         0.010000   
    648. D(Zr  1,O  10,Zr  4,O   7)    -27.0297         0.010000   
    649. D(Zr  4,O  10,Zr  3,Zr  0)    -48.7082         0.010000   
    650. D(Zr  3,O  10,Zr  4,Zr  1)    141.4424         0.010000   
    651. D(Zr  4,O  10,Zr  1,Zr  2)     48.8693         0.010000   
    652. D(Zr  1,O  10,Zr  3,Zr  0)     77.2183         0.010000   
    653. D(Zr  1,O  10,Zr  4,Zr  3)   -141.4424         0.010000   
    654. D(Zr  3,O  10,Zr  1,Zr  2)    -77.6251         0.010000   
    655. D(Zr  3,O  10,Zr  1,Zr  4)   -126.4944         0.010000   
    656. D(Zr  1,O  10,Zr  3,Zr  4)    125.9265         0.010000   
    657. D(Zr  2,O  11,Zr  5,Zr  0)   -142.1203         0.010000   
    658. D(Zr  0,O  11,Zr  5,Zr  2)    142.1203         0.010000   
    659. D(Zr  2,O  11,Zr  0,Zr  5)    127.3903         0.010000   
    660. D(Zr  5,O  11,Zr  2,Zr  1)     49.1680         0.010000   
    661. D(Zr  0,O  11,Zr  2,Zr  5)   -126.9614         0.010000   
    662. D(Zr  0,O  11,Zr  5,O   6)     25.3508         0.010000   
    663. D(Zr  5,O  11,Zr  0,Zr  3)    -48.4914         0.010000   
    664. D(Zr  2,O  11,Zr  0,Zr  3)     78.8988         0.010000   
    665. D(Zr  0,O  11,Zr  2,Zr  1)    -77.7934         0.010000   
    666. D(H  70,O  12,Zr  0,Zr  3)    -15.7781         0.010000   
    667. D(C  36,O  12,Zr  0,Zr  5)     -0.5863         0.010000   
    668. D(C  36,O  12,Zr  0,Zr  3)     50.1486         0.010000   
    669. D(H  63,O  13,Zr  0,Zr  3)    164.8541         0.010000   
    670. D(C  37,O  13,Zr  0,Zr  5)    -97.5153         0.010000   
    671. D(C  37,O  13,Zr  0,Zr  3)    -35.2690         0.010000   
    672. D(C  38,O  14,Zr  0,Zr  5)     37.2610         0.010000   
    673. D(C  38,O  14,Zr  0,Zr  3)    -46.9342         0.010000   
    674. D(C  39,O  15,Zr  0,Zr  5)    -27.2831         0.010000   
    675. D(C  39,O  15,Zr  0,Zr  3)    -74.3811         0.010000   
    676. D(C  40,O  16,Zr  1,Zr  4)     26.2200         0.010000   
    677. D(C  40,O  16,Zr  1,Zr  2)     73.9274         0.010000   
    678. D(C  41,O  17,Zr  1,Zr  4)    -37.7784         0.010000   
    679. D(C  41,O  17,Zr  1,Zr  2)     47.3991         0.010000   
    680. D(C  42,O  18,Zr  1,Zr  4)     97.7576         0.010000   
    681. D(C  42,O  18,Zr  1,Zr  2)     34.4199         0.010000   
    682. D(C  43,O  19,Zr  1,Zr  4)      2.2848         0.010000   
    683. D(C  43,O  19,Zr  1,Zr  2)    -49.4291         0.010000   
    684. D(C  44,O  20,Zr  2,Zr  5)     29.6287         0.010000   
    685. D(C  44,O  20,Zr  2,Zr  1)    -17.5645         0.010000   
    686. D(C  38,O  21,Zr  2,Zr  5)    -24.3289         0.010000   
    687. D(C  38,O  21,Zr  2,Zr  1)     61.4999         0.010000   
    688. D(C  42,O  22,Zr  2,Zr  5)     93.7933         0.010000   
    689. D(C  42,O  22,Zr  2,Zr  1)     29.7254         0.010000   
    690. D(C  45,O  23,Zr  2,Zr  5)     31.2391         0.010000   
    691. D(C  45,O  23,Zr  2,Zr  1)     63.8016         0.010000   
    692. D(H  65,O  24,Zr  3,Zr  0)     83.4165         0.010000   
    693. D(C  46,O  24,Zr  3,Zr  4)    -34.4426         0.010000   
    694. D(C  46,O  24,Zr  3,Zr  0)    -69.7925         0.010000   
    695. D(H  65,O  25,Zr  3,Zr  0)   -102.0558         0.010000   
    696. D(C  37,O  25,Zr  3,Zr  4)    -90.8060         0.010000   
    697. D(C  37,O  25,Zr  3,Zr  0)    -26.6489         0.010000   
    698. D(C  41,O  26,Zr  3,Zr  4)     22.4207         0.010000   
    699. D(C  41,O  26,Zr  3,Zr  0)    -62.1843         0.010000   
    700. D(C  47,O  27,Zr  3,Zr  4)    -30.2251         0.010000   
    701. D(C  47,O  27,Zr  3,Zr  0)     16.8106         0.010000   
    702. D(C  47,O  28,Zr  4,Zr  3)    -29.6409         0.010000   
    703. D(C  47,O  28,Zr  4,Zr  1)     19.0555         0.010000   
    704. D(C  39,O  29,Zr  4,Zr  3)      0.6355         0.010000   
    705. D(C  39,O  29,Zr  4,Zr  1)    -75.9194         0.010000   
    706. D(C  43,O  30,Zr  4,Zr  3)    -60.1430         0.010000   
    707. D(C  43,O  30,Zr  4,Zr  1)      2.0420         0.010000   
    708. D(C  45,O  31,Zr  4,Zr  3)      7.9164         0.010000   
    709. D(C  45,O  31,Zr  4,Zr  1)    -39.6948         0.010000   
    710. D(H  70,O  32,Zr  5,Zr  0)    -35.7308         0.010000   
    711. D(C  46,O  32,Zr  5,Zr  2)    -10.8455         0.010000   
    712. D(C  46,O  32,Zr  5,Zr  0)     42.1897         0.010000   
    713. D(H  70,O  33,Zr  5,Zr  0)     62.8598         0.010000   
    714. D(C  36,O  33,Zr  5,Zr  2)     54.3078         0.010000   
    715. D(C  36,O  33,Zr  5,Zr  0)     -7.3504         0.010000   
    716. D(C  40,O  34,Zr  5,Zr  2)     -2.6760         0.010000   
    717. D(C  40,O  34,Zr  5,Zr  0)     72.0919         0.010000   
    718. D(C  44,O  35,Zr  5,Zr  0)    -21.0161         0.010000   
    719. D(C  44,O  35,Zr  5,Zr  2)     28.2644         0.010000   
    720. D(O  33,C  36,O  12,Zr  0)     -4.4189         0.061035   
    721. D(H  58,C  36,O  33,Zr  5)   -171.2525         0.056485   
    722. D(O  12,C  36,O  33,H  70)    -70.8897         0.056485   
    723. D(O  12,C  36,O  33,Zr  5)     10.3070         0.056485   
    724. D(H  58,C  36,O  12,Zr  0)    177.1399         0.061035   
    725. D(O  33,C  36,O  12,H  70)     70.6567         0.061035   
    726. D(H  51,C  37,O  13,Zr  0)   -147.9057         0.067065   
    727. D(O  13,C  37,O  25,Zr  3)     13.4113         0.059814   
    728. D(H  51,C  37,O  25,Zr  3)   -167.0284         0.059814   
    729. D(O  25,C  37,O  13,H  63)   -170.8587         0.067065   
    730. D(O  25,C  37,O  13,Zr  0)     31.6533         0.067065   
    731. D(O  13,C  37,O  25,H  65)    108.4650         0.059814   
    732. D(H  50,C  38,O  14,Zr  0)   -179.0417         0.048292   
    733. D(O  21,C  38,O  14,Zr  0)      1.7631         0.048292   
    734. D(H  50,C  38,O  21,Zr  2)    170.3694         0.048393   
    735. D(O  14,C  38,O  21,Zr  2)    -10.4355         0.048393   
    736. D(H  54,C  39,O  29,Zr  4)   -147.2177         0.046369   
    737. D(O  15,C  39,O  29,Zr  4)     33.4665         0.046369   
    738. D(H  54,C  39,O  15,Zr  0)   -163.2837         0.047149   
    739. D(O  29,C  39,O  15,Zr  0)     16.0327         0.047149   
    740. D(H  56,C  40,O  34,Zr  5)    148.3288         0.046506   
    741. D(O  16,C  40,O  34,Zr  5)    -32.2652         0.046506   
    742. D(H  56,C  40,O  16,Zr  1)    163.8761         0.047227   
    743. D(O  34,C  40,O  16,Zr  1)    -15.5304         0.047227   
    744. D(H  48,C  41,O  26,Zr  3)   -167.6444         0.048392   
    745. D(O  17,C  41,O  26,Zr  3)     13.3949         0.048392   
    746. D(H  48,C  41,O  17,Zr  1)    177.7892         0.048349   
    747. D(O  26,C  41,O  17,Zr  1)     -3.2501         0.048349   
    748. D(H  49,C  42,O  22,Zr  2)    160.7022         0.045948   
    749. D(O  18,C  42,O  22,Zr  2)    -18.7423         0.045948   
    750. D(H  49,C  42,O  18,Zr  1)    152.8879         0.045709   
    751. D(O  22,C  42,O  18,Zr  1)    -27.6675         0.045709   
    752. D(H  52,C  43,O  30,Zr  4)    178.6364         0.047141   
    753. D(O  19,C  43,O  30,Zr  4)     -1.3516         0.047141   
    754. D(H  52,C  43,O  19,Zr  1)    178.1691         0.047055   
    755. D(O  30,C  43,O  19,Zr  1)     -1.8428         0.047055   
    756. D(H  59,C  44,O  35,Zr  5)    160.5679         0.045898   
    757. D(O  20,C  44,O  35,Zr  5)    -19.4076         0.045898   
    758. D(H  59,C  44,O  20,Zr  2)    156.8731         0.045906   
    759. D(O  35,C  44,O  20,Zr  2)    -23.1513         0.045906   
    760. D(H  55,C  45,O  31,Zr  4)    176.2575         0.047527   
    761. D(O  23,C  45,O  31,Zr  4)     -2.7781         0.047527   
    762. D(H  55,C  45,O  23,Zr  2)    166.8923         0.047657   
    763. D(O  31,C  45,O  23,Zr  2)    -14.0725         0.047657   
    764. D(H  57,C  46,O  32,Zr  5)    174.9525         0.056825   
    765. D(O  24,C  46,O  32,H  70)     78.8466         0.056825   
    766. D(O  24,C  46,O  32,Zr  5)     -7.7760         0.056825   
    767. D(H  57,C  46,O  24,Zr  3)   -156.1882         0.061579   
    768. D(O  32,C  46,O  24,H  65)   -129.0056         0.061579   
    769. D(O  32,C  46,O  24,Zr  3)     26.5428         0.061579   
    770. D(H  53,C  47,O  28,Zr  4)   -158.9922         0.045788   
    771. D(O  27,C  47,O  28,Zr  4)     20.9424         0.045788   
    772. D(H  53,C  47,O  27,Zr  3)   -157.0368         0.045871   
    773. D(O  28,C  47,O  27,Zr  3)     23.0285         0.045871   
    774. D(H  65,H  51,C  37,O  13)   -101.8887         0.140065   
    775. D(H  64,H  51,C  37,O  25)    130.1434         0.140065   
    776. D(H  64,H  51,C  37,O  13)    -50.2514         0.140065   
    777. D(H  66,H  57,C  46,O  24)    -82.0251         0.137908   
    778. D(H  70,H  57,C  46,O  32)     79.6142         0.137908   
    779. D(H  70,H  57,C  46,O  24)    -98.0815         0.137908   
    780. D(H  62,H  58,C  36,O  12)     73.0950         0.132636   
    781. D(H  70,H  58,C  36,O  33)    -89.0270         0.132636   
    782. D(H  70,H  58,C  36,O  12)     89.5944         0.132636   
    783. D(H  63,Al 61,Al 60,H  64)    -59.3315         0.010000   
    784. D(H  62,Al 61,Al 60,H  65)   -107.7122         0.010000   
    785. D(H  62,Al 61,Al 60,H  64)   -167.2922         0.010000   
    786. D(H  58,H  62,Al 61,Al 60)    119.4716         0.010000   
    787. D(Al 68,H  62,Al 61,H  63)   -103.8468         0.010000   
    788. D(Al 68,H  62,Al 61,Al 60)     23.2715         0.010000   
    789. D(Al 68,H  62,H  58,C  36)     50.6462         0.010000   
    790. D(Al 61,H  62,H  58,H  70)    -76.9919         0.010000   
    791. D(Al 61,H  62,H  58,C  36)    -59.6372         0.010000   
    792. D(O  13,H  63,Al 61,H  62)     92.7454         0.010000   
    793. D(O  13,H  63,Al 61,Al 60)     -9.3327         0.010000   
    794. D(O  12,H  63,O  13,Zr  0)    -25.2795         0.010000   
    795. D(Al 61,H  63,O  13,C  37)     59.3846         0.010000   
    796. D(Al 61,H  63,O  13,Zr  0)   -139.2309         0.010000   
    797. D(O  13,H  63,O  12,Zr  0)     24.3483         0.010000   
    798. D(Al 61,H  63,O  12,C  36)    -31.8326         0.010000   
    799. D(O  12,H  63,Al 61,Al 60)    -69.8448         0.010000   
    800. D(Al 61,H  63,O  12,Zr  0)    113.6992         0.010000   
    801. D(H  51,H  64,Al 61,Al 60)   -123.3982         0.010000   
    802. D(Al 60,H  64,Al 61,H  63)    133.7979         0.010000   
    803. D(Al 60,H  64,Al 61,H  62)     15.6904         0.010000   
    804. D(Al 61,H  64,Al 60,H  66)    -16.4587         0.010000   
    805. D(Al 61,H  64,Al 60,H  65)   -132.8783         0.010000   
    806. D(Al 61,H  64,H  51,C  37)     58.7221         0.010000   
    807. D(Al 60,H  64,H  51,H  65)      1.1950         0.010000   
    808. D(Al 60,H  64,H  51,C  37)    -66.7205         0.010000   
    809. D(Al 61,H  64,C  37,O  13)      7.1901         0.010000   
    810. D(Al 60,H  64,C  37,O  25)     27.7134         0.010000   
    811. D(H  51,H  64,Al 60,Al 61)    131.0673         0.010000   
    812. D(Al 60,H  64,C  37,O  13)   -107.0445         0.010000   
    813. D(Al 61,H  64,O  13,Zr  0)     18.3418         0.010000   
    814. D(Al 60,H  64,O  13,C  37)     77.4740         0.010000   
    815. D(Al 60,H  64,O  13,Zr  0)    -91.0567         0.010000   
    816. D(H  51,H  65,Al 60,Al 61)    -28.8049         0.010000   
    817. D(O  24,H  65,Al 60,H  64)     92.3545         0.010000   
    818. D(O  24,H  65,H  51,C  37)     -8.5958         0.010000   
    819. D(Al 60,H  65,H  51,H  64)     -1.1972         0.010000   
    820. D(Al 60,H  65,H  51,C  37)    116.1873         0.010000   
    821. D(O  24,H  65,C  37,O  13)    -75.2637         0.010000   
    822. D(Al 60,H  65,C  37,O  25)    174.5417         0.010000   
    823. D(Al 60,H  65,C  37,O  13)     47.1412         0.010000   
    824. D(O  24,H  65,O  25,Zr  3)      7.7620         0.010000   
    825. D(Al 60,H  65,O  25,C  37)     -6.7447         0.010000   
    826. D(Al 60,H  65,O  25,Zr  3)    116.5459         0.010000   
    827. D(O  24,H  65,Al 60,Al 61)     62.0153         0.010000   
    828. D(H  51,H  65,O  24,Zr  3)    -28.8405         0.010000   
    829. D(Al 60,H  65,O  24,C  46)     37.5211         0.010000   
    830. D(Al 60,H  65,O  24,Zr  3)   -122.8266         0.010000   
    831. D(H  57,H  66,Al 60,Al 61)   -117.8341         0.010000   
    832. D(Al 68,H  66,Al 60,H  64)    -13.0381         0.010000   
    833. D(Al 68,H  66,Al 60,Al 61)    -22.3645         0.010000   
    834. D(Al 68,H  66,H  57,C  46)    -46.1243         0.010000   
    835. D(Al 60,H  66,H  57,H  70)     81.3839         0.010000   
    836. D(Al 60,H  66,H  57,C  46)     64.0987         0.010000   
    837. D(Al 61,Al 68,H  66,Al 60)     22.4923         0.010000   
    838. D(Al 60,Al 68,H  66,H  57)    108.3771         0.010000   
    839. D(Al 61,Al 68,H  62,H  58)   -117.2188         0.010000   
    840. D(Al 60,Al 68,H  62,H  58)   -140.6476         0.010000   
    841. D(Al 60,Al 68,H  62,Al 61)    -23.4289         0.010000   
    842. D(H  62,Al 68,Al 61,Al 60)   -152.8028         0.010000   
    843. D(Al 60,Al 68,Al 61,H  63)   -120.5867         0.010000   
    844. D(Al 60,Al 68,Al 61,H  62)    152.8028         0.010000   
    845. D(H  62,Al 68,Al 60,Al 61)     15.2960         0.010000   
    846. D(Al 61,Al 68,Al 60,H  65)    119.3329         0.010000   
    847. D(Al 61,Al 68,H  66,H  57)    130.8694         0.010000   
    848. D(Al 61,Al 68,Al 60,H  64)     15.5522         0.010000   
    849. D(C  46,H  70,Al 68,Al 60)    -81.0007         0.011449   
    850. D(O  32,H  70,Al 68,Al 60)   -113.1055         0.011449   
    851. D(O  32,H  70,H  58,C  36)     52.4659         0.010000   
    852. D(Al 68,H  70,H  58,H  62)    -34.6961         0.010000   
    853. D(O  32,H  70,H  57,C  46)    -43.3070         0.010000   
    854. D(Al 68,H  70,H  57,H  66)     30.0694         0.010000   
    855. D(Al 68,H  70,H  57,C  46)   -170.3869         0.010000   
    856. D(Al 68,H  70,C  46,O  32)   -102.1404         0.010000   
    857. D(Al 68,H  70,C  46,O  24)    126.5558         0.010000   
    858. D(O  32,H  70,C  36,O  12)    116.4681         0.010000   
    859. D(Al 68,H  70,C  36,O  33)    101.7870         0.010000   
    860. D(Al 68,H  70,C  36,O  12)   -127.5646         0.010000   
    861. D(O  32,H  70,O  33,Zr  5)     31.4132         0.010000   
    862. D(Al 68,H  70,O  33,C  36)    -87.7646         0.010000   
    863. D(Al 68,H  70,O  33,Zr  5)    139.8282         0.010000   
    864. D(C  46,H  70,O  32,Zr  5)    138.6025         0.010000   
    865. D(Al 68,H  70,O  32,C  46)     91.0547         0.010000   
    866. D(Al 68,H  70,O  32,Zr  5)   -130.3427         0.010000   
    867. D(O  32,H  70,O  24,Zr  3)    -99.7907         0.010000   
    868. D(Al 68,H  70,O  24,C  46)    -66.5129         0.010000   
    869. D(Al 68,H  70,O  24,Zr  3)    165.1939         0.010000   
    870. D(O  32,H  70,O  13,Zr  0)    -54.5514         0.010000   
    871. D(O  32,H  70,C  46,O  24)   -131.3038         0.010000   
    872. D(Al 68,H  70,O  13,C  37)    -83.0044         0.010000   
    873. D(Al 68,H  70,O  13,Zr  0)    143.2378         0.010000   
    874. D(O  32,H  70,O  12,Zr  0)     68.1168         0.010000   
    875. D(Al 68,H  70,H  58,C  36)    167.7034         0.010000   
    876. D(Al 68,H  70,O  12,C  36)     63.4535         0.010000   
    877. D(Al 68,H  70,O  12,Zr  0)   -162.6227         0.010000   
    878. D(O  32,H  70,O   6,Zr  0)   -157.9011         0.010000   
    879. D(O  32,H  70,Al 68,Al 61)   -173.6587         0.011449   
    880. D(Al 68,H  70,O   6,Zr  3)    100.0088         0.010000   
    881. D(Al 68,H  70,O   6,Zr  0)   -154.8769         0.010000   
    -----------------------------------------------------------------

Number of atoms                         .... 72
Number of degrees of freedom            .... 881


         *************************************************************
         *                GEOMETRY OPTIMIZATION CYCLE   1            *
         *************************************************************
---------------------------------
CARTESIAN COORDINATES (ANGSTROEM)
---------------------------------
  Zr    -0.359646    2.175299    1.562126
  Zr     0.329509   -1.934427   -1.484155
  Zr     1.615791   -1.250338    1.563000
  Zr    -1.671194    1.481667   -1.481406
  Zr     1.744275    1.158486   -1.609416
  Zr    -1.799841   -0.917892    1.672424
  O     -1.565213    0.796616    0.526318
  O      1.482565   -0.519390   -0.421890
  O     -0.177004   -1.715812    0.600795
  O      0.125082    1.943274   -0.522034
  O     -0.082040    0.123987   -2.047063
  O      0.032859    0.113088    2.111507
  O     -1.276891    2.067519    3.309078
  O     -1.788337    3.492242    1.156555
  O      1.295510    2.162458    2.728485
  O      0.822240    3.739072    0.893633
  O     -0.839789   -3.509455   -0.826341
  O     -1.312496   -1.938063   -2.668349
  O      1.788852   -3.225571   -1.085519
  O      1.277132   -1.825546   -3.216611
  O      0.994923   -1.951309    3.319357
  O      2.512178    0.169185    2.624880
  O      1.942393   -3.187988    1.235612
  O      3.504248   -1.143702    0.714320
  O     -3.569483    1.348140   -0.678627
  O     -1.981066    3.419461   -1.161126
  O     -2.549894    0.040653   -2.545668
  O     -1.059588    2.181067   -3.243550
  O      1.198949    2.613241   -2.848950
  O      2.436162    2.721943   -0.482067
  O      2.292822    0.269749   -3.281437
  O      3.591622    0.465420   -0.999202
  O     -3.650855   -0.294804    1.003670
  O     -2.340727   -0.004951    3.334280
  O     -2.463676   -2.519096    0.556106
  O     -1.269939   -2.357657    2.934771
  C     -1.983690    1.127850    3.860009
  C     -2.092797    4.000957   -0.002762
  C      2.267455    1.368277    3.048448
  C      1.922715    3.698359    0.206140
  C     -1.938737   -3.486134   -0.135980
  C     -2.284275   -1.145543   -2.992336
  C      2.118336   -3.733362    0.067213
  C      2.009414   -0.902432   -3.762145
  C     -0.153165   -2.502655    3.587212
[...]
215:   2907.84   0.017561   88.75  0.001885  (-0.022389  0.037081 -0.002893)

* The epsilon (eps) is given for a Dirac delta lineshape.
** The dipole moment derivative (T) already includes vibrational overlap.

The first frequency considered to be a vibration is 9
The total number of vibrations considered is 207


--------------------------
THERMOCHEMISTRY AT 298.15K
--------------------------

Temperature         ...   298.15 K
Pressure            ...     1.00 atm
Total Mass          ...  1273.54 AMU
Quasi RRHO          ...     True
Cut-Off Frequency   ...     1.00 cm^-1

Throughout the following assumptions are being made:
  (1) The electronic state is orbitally nondegenerate
  (2) There are no thermally accessible electronically excited states
  (3) Hindered rotations indicated by low frequency modes are not
      treated as such but are treated as vibrations and this may
      cause some error
  (4) All equations used are the standard statistical mechanics
      equations for an ideal gas
  (5) All vibrations are strictly harmonic

freq.      17.43  E(vib)   ...       0.57 
freq.      20.92  E(vib)   ...       0.56 
freq.      21.47  E(vib)   ...       0.56 
freq.      26.15  E(vib)   ...       0.56 
freq.      31.71  E(vib)   ...       0.55 
freq.      35.18  E(vib)   ...       0.54 
freq.      46.88  E(vib)   ...       0.53 
freq.      51.89  E(vib)   ...       0.52 
freq.      53.22  E(vib)   ...       0.52 
freq.      79.50  E(vib)   ...       0.49 
freq.      80.44  E(vib)   ...       0.48 
freq.      88.06  E(vib)   ...       0.48 
freq.      93.99  E(vib)   ...       0.47 
freq.      95.82  E(vib)   ...       0.47 
freq.      95.94  E(vib)   ...       0.47 
freq.     100.95  E(vib)   ...       0.46 
freq.     105.62  E(vib)   ...       0.45 
freq.     105.79  E(vib)   ...       0.45 
freq.     109.92  E(vib)   ...       0.45 
freq.     111.74  E(vib)   ...       0.45 
freq.     116.34  E(vib)   ...       0.44 
freq.     118.22  E(vib)   ...       0.44 
freq.     129.28  E(vib)   ...       0.43 
freq.     142.99  E(vib)   ...       0.41 
freq.     148.41  E(vib)   ...       0.41 
freq.     150.47  E(vib)   ...       0.40 
freq.     151.30  E(vib)   ...       0.40 
freq.     152.15  E(vib)   ...       0.40 
freq.     152.60  E(vib)   ...       0.40 
freq.     155.99  E(vib)   ...       0.40 
freq.     158.86  E(vib)   ...       0.39 
freq.     160.18  E(vib)   ...       0.39 
freq.     161.78  E(vib)   ...       0.39 
freq.     162.74  E(vib)   ...       0.39 
freq.     164.74  E(vib)   ...       0.39 
freq.     167.82  E(vib)   ...       0.38 
freq.     171.16  E(vib)   ...       0.38 
freq.     172.13  E(vib)   ...       0.38 
freq.     180.75  E(vib)   ...       0.37 
freq.     186.99  E(vib)   ...       0.36 
freq.     187.29  E(vib)   ...       0.36 
freq.     189.23  E(vib)   ...       0.36 
freq.     192.58  E(vib)   ...       0.36 
freq.     195.08  E(vib)   ...       0.36 
freq.     197.30  E(vib)   ...       0.35 
freq.     203.73  E(vib)   ...       0.35 
freq.     209.40  E(vib)   ...       0.34 
freq.     212.79  E(vib)   ...       0.34 
freq.     214.95  E(vib)   ...       0.34 
freq.     228.67  E(vib)   ...       0.32 
freq.     230.77  E(vib)   ...       0.32 
freq.     231.46  E(vib)   ...       0.32 
freq.     233.83  E(vib)   ...       0.32 
freq.     236.97  E(vib)   ...       0.32 
freq.     243.51  E(vib)   ...       0.31 
freq.     259.41  E(vib)   ...       0.30 
freq.     261.30  E(vib)   ...       0.30 
freq.     262.37  E(vib)   ...       0.29 
freq.     263.49  E(vib)   ...       0.29 
freq.     263.65  E(vib)   ...       0.29 
freq.     265.90  E(vib)   ...       0.29 
freq.     268.94  E(vib)   ...       0.29 
freq.     272.84  E(vib)   ...       0.29 
freq.     273.39  E(vib)   ...       0.29 
freq.     274.83  E(vib)   ...       0.28 
freq.     275.50  E(vib)   ...       0.28 
freq.     276.48  E(vib)   ...       0.28 
freq.     278.27  E(vib)   ...       0.28 
freq.     281.67  E(vib)   ...       0.28 
freq.     282.20  E(vib)   ...       0.28 
freq.     287.97  E(vib)   ...       0.27 
freq.     289.63  E(vib)   ...       0.27 
freq.     293.90  E(vib)   ...       0.27 
freq.     294.04  E(vib)   ...       0.27 
freq.     299.62  E(vib)   ...       0.26 
freq.     300.89  E(vib)   ...       0.26 
freq.     305.49  E(vib)   ...       0.26 
freq.     307.61  E(vib)   ...       0.26 
freq.     309.77  E(vib)   ...       0.26 
freq.     313.46  E(vib)   ...       0.25 
freq.     314.66  E(vib)   ...       0.25 
freq.     316.58  E(vib)   ...       0.25 
freq.     318.74  E(vib)   ...       0.25 
freq.     320.76  E(vib)   ...       0.25 
freq.     323.82  E(vib)   ...       0.25 
freq.     325.09  E(vib)   ...       0.24 
freq.     339.11  E(vib)   ...       0.23 
freq.     340.26  E(vib)   ...       0.23 
freq.     350.40  E(vib)   ...       0.23 
freq.     351.94  E(vib)   ...       0.23 
freq.     359.51  E(vib)   ...       0.22 
freq.     367.91  E(vib)   ...       0.21 
freq.     383.51  E(vib)   ...       0.20 
freq.     393.96  E(vib)   ...       0.20 
freq.     398.15  E(vib)   ...       0.20 
freq.     399.81  E(vib)   ...       0.19 
freq.     402.01  E(vib)   ...       0.19 
freq.     412.61  E(vib)   ...       0.19 
freq.     413.11  E(vib)   ...       0.19 
freq.     415.73  E(vib)   ...       0.18 
freq.     420.04  E(vib)   ...       0.18 
freq.     421.47  E(vib)   ...       0.18 
freq.     423.63  E(vib)   ...       0.18 
freq.     429.28  E(vib)   ...       0.18 
freq.     466.41  E(vib)   ...       0.16 
freq.     477.52  E(vib)   ...       0.15 
freq.     478.68  E(vib)   ...       0.15 
freq.     486.63  E(vib)   ...       0.15 
freq.     513.46  E(vib)   ...       0.13 
freq.     531.31  E(vib)   ...       0.13 
freq.     541.66  E(vib)   ...       0.12 
freq.     553.26  E(vib)   ...       0.12 
freq.     618.51  E(vib)   ...       0.09 
freq.     658.78  E(vib)   ...       0.08 
freq.     661.29  E(vib)   ...       0.08 
freq.     669.11  E(vib)   ...       0.08 
freq.     675.11  E(vib)   ...       0.08 
freq.     679.13  E(vib)   ...       0.08 
freq.     683.50  E(vib)   ...       0.07 
freq.     698.31  E(vib)   ...       0.07 
freq.     732.85  E(vib)   ...       0.06 
freq.     733.96  E(vib)   ...       0.06 
freq.     734.47  E(vib)   ...       0.06 
freq.     735.24  E(vib)   ...       0.06 
freq.     735.59  E(vib)   ...       0.06 
freq.     737.31  E(vib)   ...       0.06 
freq.     738.10  E(vib)   ...       0.06 
freq.     738.55  E(vib)   ...       0.06 
freq.     738.78  E(vib)   ...       0.06 
freq.     738.96  E(vib)   ...       0.06 
freq.     740.05  E(vib)   ...       0.06 
freq.     741.97  E(vib)   ...       0.06 
freq.     743.03  E(vib)   ...       0.06 
freq.     744.31  E(vib)   ...       0.06 
freq.     761.47  E(vib)   ...       0.06 
freq.     951.50  E(vib)   ...       0.03 
freq.     996.32  E(vib)   ...       0.02 
freq.     999.25  E(vib)   ...       0.02 
freq.     999.31  E(vib)   ...       0.02 
freq.     999.76  E(vib)   ...       0.02 
freq.    1000.78  E(vib)   ...       0.02 
freq.    1001.43  E(vib)   ...       0.02 
freq.    1002.03  E(vib)   ...       0.02 
freq.    1004.46  E(vib)   ...       0.02 
freq.    1005.43  E(vib)   ...       0.02 
freq.    1005.83  E(vib)   ...       0.02 
freq.    1006.28  E(vib)   ...       0.02 
freq.    1006.53  E(vib)   ...       0.02 
freq.    1084.53  E(vib)   ...       0.02 
freq.    1128.13  E(vib)   ...       0.01 
freq.    1350.55  E(vib)   ...       0.01 
freq.    1352.37  E(vib)   ...       0.01 
freq.    1353.49  E(vib)   ...       0.01 
freq.    1354.18  E(vib)   ...       0.01 
freq.    1354.28  E(vib)   ...       0.01 
freq.    1354.62  E(vib)   ...       0.01 
freq.    1355.54  E(vib)   ...       0.01 
freq.    1356.45  E(vib)   ...       0.01 
freq.    1357.28  E(vib)   ...       0.01 
freq.    1357.65  E(vib)   ...       0.01 
freq.    1358.02  E(vib)   ...       0.01 
freq.    1358.39  E(vib)   ...       0.01 
freq.    1359.81  E(vib)   ...       0.01 
freq.    1361.14  E(vib)   ...       0.01 
freq.    1361.93  E(vib)   ...       0.01 
freq.    1362.60  E(vib)   ...       0.01 
freq.    1365.37  E(vib)   ...       0.01 
freq.    1365.97  E(vib)   ...       0.01 
freq.    1366.22  E(vib)   ...       0.01 
freq.    1368.06  E(vib)   ...       0.01 
freq.    1368.28  E(vib)   ...       0.01 
freq.    1372.42  E(vib)   ...       0.01 
freq.    1372.82  E(vib)   ...       0.01 
freq.    1381.58  E(vib)   ...       0.01 
freq.    1541.62  E(vib)   ...       0.00 
freq.    1550.37  E(vib)   ...       0.00 
freq.    1565.42  E(vib)   ...       0.00 
freq.    1566.89  E(vib)   ...       0.00 
freq.    1570.86  E(vib)   ...       0.00 
freq.    1579.22  E(vib)   ...       0.00 
freq.    1580.10  E(vib)   ...       0.00 
freq.    1622.94  E(vib)   ...       0.00 
freq.    1635.00  E(vib)   ...       0.00 
freq.    1635.39  E(vib)   ...       0.00 
freq.    1637.18  E(vib)   ...       0.00 
freq.    1640.00  E(vib)   ...       0.00 
freq.    1640.73  E(vib)   ...       0.00 
freq.    1685.11  E(vib)   ...       0.00 
freq.    1761.86  E(vib)   ...       0.00 
freq.    1887.45  E(vib)   ...       0.00 
freq.    1888.30  E(vib)   ...       0.00 
freq.    1896.70  E(vib)   ...       0.00 
freq.    1908.83  E(vib)   ...       0.00 
freq.    1916.12  E(vib)   ...       0.00 
freq.    1930.11  E(vib)   ...       0.00 
freq.    2877.43  E(vib)   ...       0.00 
freq.    2884.72  E(vib)   ...       0.00 
freq.    2886.40  E(vib)   ...       0.00 
freq.    2887.62  E(vib)   ...       0.00 
freq.    2889.27  E(vib)   ...       0.00 
freq.    2889.53  E(vib)   ...       0.00 
freq.    2890.85  E(vib)   ...       0.00 
freq.    2903.23  E(vib)   ...       0.00 
freq.    2903.35  E(vib)   ...       0.00 
freq.    2904.27  E(vib)   ...       0.00 
freq.    2906.10  E(vib)   ...       0.00 
freq.    2907.84  E(vib)   ...       0.00 

------------
INNER ENERGY
------------

The inner energy is: U= E(el) + E(ZPE) + E(vib) + E(rot) + E(trans)
    E(el)   - is the total energy from the electronic structure calculation
              = E(kin-el) + E(nuc-el) + E(el-el) + E(nuc-nuc)
    E(ZPE)  - the the zero temperature vibrational energy from the frequency calculation
    E(vib)  - the the finite temperature correction to E(ZPE) due to population
              of excited vibrational states
    E(rot)  - is the rotational thermal energy
    E(trans)- is the translational thermal energy

Summary of contributions to the inner energy U:
Electronic energy                ...  -3732.51246885 Eh
Zero point energy                ...      0.36999366 Eh     232.17 kcal/mol
Thermal vibrational correction   ...      0.06101634 Eh      38.29 kcal/mol
Thermal rotational correction    ...      0.00141627 Eh       0.89 kcal/mol
Thermal translational correction ...      0.00141627 Eh       0.89 kcal/mol
-----------------------------------------------------------------------
Total thermal energy                  -3732.07862631 Eh


Summary of corrections to the electronic energy:
(perhaps to be used in another calculation)
Total thermal correction                  0.06384888 Eh      40.07 kcal/mol
Non-thermal (ZPE) correction              0.36999366 Eh     232.17 kcal/mol
-----------------------------------------------------------------------
Total correction                          0.43384254 Eh     272.24 kcal/mol


--------
ENTHALPY
--------

The enthalpy is H = U + kB*T
                kB is Boltzmann's constant
Total thermal energy              ...  -3732.07862631 Eh 
Thermal Enthalpy correction       ...      0.00094421 Eh       0.59 kcal/mol
-----------------------------------------------------------------------
Total Enthalpy                    ...  -3732.07768210 Eh


Note: Only C1 symmetry has been detected, increase convergence thresholds 
      if your molecule has a higher symmetry. Symmetry factor of 1.0 is   
      used for the rotational entropy correction. 
 

Note: Rotational entropy computed according to Herzberg 
Infrared and Raman Spectra, Chapter V,1, Van Nostrand Reinhold, 1945 
Point Group:  C1, Symmetry Number:   1  
Rotational constants in cm-1:     0.001811     0.001218     0.001178 

Vibrational entropy computed according to the QRRHO of S. Grimme
Chem.Eur.J. 2012 18 9955 using a reference frequency of 100.0 cm-1


-------
ENTROPY
-------

The entropy contributions are T*S = T*(S(el)+S(vib)+S(rot)+S(trans))
     S(el)   - electronic entropy
     S(vib)  - vibrational entropy
     S(rot)  - rotational entropy
     S(trans)- translational entropy
The entropies will be listed as multiplied by the temperature to get
units of energy

Electronic entropy                ...      0.00000000 Eh      0.00 kcal/mol
Vibrational entropy               ...      0.10992657 Eh     68.98 kcal/mol
Rotational entropy                ...      0.01884300 Eh     11.82 kcal/mol
Translational entropy             ...      0.02247478 Eh     14.10 kcal/mol
-----------------------------------------------------------------------
Final entropy term                ...      0.15124435 Eh     94.91 kcal/mol

In case the symmetry of your molecule has not been determined correctly
or in case you have a reason to use a different symmetry number we print 
out the resulting rotational entropy values for sn=1,12:

 non-linear molecules -----------------------------------
|  sn= 1 | S(rot)=       0.01884300 Eh     11.82 kcal/mol|
|  sn= 2 | S(rot)=       0.01818854 Eh     11.41 kcal/mol|
|  sn= 3 | S(rot)=       0.01780571 Eh     11.17 kcal/mol|
|  sn= 4 | S(rot)=       0.01753408 Eh     11.00 kcal/mol|
|  sn= 5 | S(rot)=       0.01732340 Eh     10.87 kcal/mol|
|  sn= 6 | S(rot)=       0.01715125 Eh     10.76 kcal/mol|
|  sn= 7 | S(rot)=       0.01700571 Eh     10.67 kcal/mol|
|  sn= 8 | S(rot)=       0.01687963 Eh     10.59 kcal/mol|
|  sn= 9 | S(rot)=       0.01676842 Eh     10.52 kcal/mol|
|  sn=10 | S(rot)=       0.01666894 Eh     10.46 kcal/mol|
|  sn=11 | S(rot)=       0.01657895 Eh     10.40 kcal/mol|
|  sn=12 | S(rot)=       0.01649680 Eh     10.35 kcal/mol|
 linear molecules ---------------------------------------
|  Dinfh | S(rot)=       0.01169297 Eh      7.34 kcal/mol|
|  Cinfv | S(rot)=       0.01234743 Eh      7.75 kcal/mol|
 --------------------------------------------------------


-------------------
GIBBS FREE ENERGY
-------------------

The Gibbs free energy is G = H - T*S

Total enthalpy                    ...  -3732.07768210 Eh 
Total entropy correction          ...     -0.15124435 Eh    -94.91 kcal/mol
-----------------------------------------------------------------------
Final Gibbs free energy         ...  -3732.22892645 Eh

For completeness - the Gibbs free energy minus the electronic energy
G-E(el)                           ...      0.28354240 Eh    177.93 kcal/mol


Maximum memory used throughout the entire PROP-calculation: 143.3 MB

--------------------------------
SUGGESTED CITATIONS FOR THIS RUN
--------------------------------

Below you find a list of papers that are relevant to this ORCA run
We neither can nor want to force you to cite these papers, but we appreciate if you do
You receive ORCA, which is the product of decades of hard work by many enthusiastic individuals, for free
The only thing we kindly ask in return is that you cite our papers,
We deeply appreciate it, if you show your appreciation for ORCA by not just citing the generic ORCA reference.

Please note that relegating all ORCA citations to the supporting information does *not* help us.
SI sections are not indexed - citations you put there will not count into any citation statistics
But we need these citations in order to attract the funding resources that allow us to do what we are doing

Therefore, if you are a happy ORCA user, please consider citing a few of the papers listed below in the main body of your paper

In addition to the list printed below, the program has created the file run.bibtex that contains the list in bibtex format
You can import this file easily into all common literature databanks and citation aid programs


List of essential papers. We consider these as the minimum necessary citations

  1. Neese, F.
     Software update: the ORCA program system, version 6.0
     WIRES Comput. Molec. Sci. 2025 15(1), e70019
     doi.org/10.1002/wcms.7019

List of papers to cite with high priority. The work reported in these papers was absolutely
necessary for this run to complete.
Our perspective: the developers of density functionals and basis sets usually get cited in chemistry papers
Good! But without the algorithms to do something with them, the functionals or basis sets would not do anything.
Hence, in our opinion, the algorithm design and method developments papers are equally worthy of getting cited

  1. Neese, F.
     An improvement of the resolution of the identity approximation for the formation of the Coulomb matrix
     J. Comp. Chem. 2003 24(14), 1740-1747
     doi.org/10.1002/jcc.10318
  2. Grimme, S.; Antony, J.; Ehrlich, S.; Krieg, H.
     A consistent and accurate ab initio parametrization of density functional dispersion correction (DFT-D) for the 94 elements H-Pu
     J. Chem. Phys. 2010 132 , 154104
     doi.org/10.1063/1.3382344
  3. Grimme, S.; Ehrlich, S.; Goerigk, L.
     Effect of the damping function in dispersion corrected density functional theory
     J. Comput. Chem. 2011 32(7), 1456-1465
     doi.org/10.1002/jcc.21759
  4. Bykov, D.; Petrenko, T.; Izsak, R.; Kossmann, S.; Becker, U.; Valeev, E.; Neese, F.
     Efficient implementation of the analytic second derivatives of Hartree-Fock and hybrid DFT energies: a detailed analysis of different approximations
     Molec. Phys. 2015 113 , 1961-1977
     doi.org/10.1080/00268976.2015.1025114
  5. Helmich-Paris, B.
     A trust-region augmented Hessian implementation for restricted and unrestricted Hartree–Fock and Kohn–Sham methods
     J. Chem. Phys. 2021 154 , 164104
     doi.org/10.1063/5.0040798
  6. Neese, F.
     The SHARK Integral Generation and Digestion System
     J. Comp. Chem. 2022 44(3), 381
     doi.org/10.1002/jcc.26942

List of suggested additional citations. These are papers that are important in the 'surrounding' of 
of this run, or papers that preceded the highly important papers. If you like your results we are grateful for a citation.

  1. Neese, F.
     The ORCA program system
     WIRES Comput. Molec. Sci. 2012 2(1), 73-78
     doi.org/10.1002/wcms.81
  2. Neese, F.
     Software update: the ORCA program system, version 4.0
     WIRES Comput. Molec. Sci. 2018 8(1), 1-6
     doi.org/10.1002/wcms.1327
  3. Neese, F.; Wennmohs, F.; Becker, U.; Riplinger, C.
     The ORCA quantum chemistry program package
     J. Chem. Phys. 2020 152(22), 224108
     doi.org/10.1063/5.0004608
  4. Neese, F.
     Software update: The ORCA program system—Version 5.0
     WIRES Comput. Molec. Sci. 2022 12(1), e1606
     doi.org/10.1002/wcms.1606

List of optional additional citations

  1. Neese, F.
     Approximate second-order SCF convergence for spin unrestricted wavefunctions
     Chem. Phys. Lett. 2000 325(1-3), 93-98
     doi.org/10.1016/s0009-2614(00)00662-x

Timings for individual modules:

Sum of individual times          ...     8081.765 sec (= 134.696 min)
Startup calculation              ...      352.388 sec (=   5.873 min)   4.4 %
SCF iterations                   ...     2563.101 sec (=  42.718 min)  31.7 %
Property integrals               ...     1528.724 sec (=  25.479 min)  18.9 %
SCF Response                     ...     1355.259 sec (=  22.588 min)  16.8 %
Property calculations            ...     1304.831 sec (=  21.747 min)  16.1 %
SCF Gradient evaluation          ...      938.940 sec (=  15.649 min)  11.6 %
Geometry relaxation              ...       38.521 sec (=   0.642 min)   0.5 %
                             ****ORCA TERMINATED NORMALLY****
TOTAL RUN TIME: 0 days 2 hours 15 minutes 7 seconds 80 msec
