
                                 *****************
                                 * O   R   C   A *
                                 *****************

                                            #,                                       
                                            ###                                      
                                            ####                                     
                                            #####                                    
                                            ######                                   
                                           ########,                                 
                                     ,,################,,,,,                         
                               ,,#################################,,                 
                          ,,##########################################,,             
                       ,#########################################, ''#####,          
                    ,#############################################,,   '####,        
                  ,##################################################,,,,####,       
                ,###########''''           ''''###############################       
              ,#####''   ,,,,##########,,,,          '''####'''          '####       
            ,##' ,,,,###########################,,,                        '##       
           ' ,,###''''                  '''############,,,                           
         ,,##''                                '''############,,,,        ,,,,,,###''
      ,#''                                            '''#######################'''  
     '                                                          ''''####''''         
             ,#######,   #######,   ,#######,      ##                                
            ,#'     '#,  ##    ##  ,#'     '#,    #''#        ,####,    ,#,          
            ##       ##  ##   ,#'  ##            #'  '#       #'       ,# #          
            ##       ##  #######   ##           ,######,      #####,      #          
            '#,     ,#'  ##    ##  '#,     ,#' ,#      #,     #,   #      #          
             '#######'   ##     ##  '#######'  #'      '#     '####' #    #          



                #########################################################
                #                        -***-                          #
                #          Department of theory and spectroscopy        #
                #                                                       #
                #                      Frank Neese                      #
                #                                                       #
                #     Directorship, Architecture, Infrastructure        #
                #                    SHARK, DRIVERS                     #
                #        Core code/Algorithms in most modules           #
                #                                                       #
                #        Max Planck Institute fuer Kohlenforschung      #
                #                Kaiser Wilhelm Platz 1                 #
                #                 D-45470 Muelheim/Ruhr                 #
                #                      Germany                          #
                #                                                       #
                #                  All rights reserved                  #
                #                        -***-                          #
                #########################################################


                         Program Version 6.1.0  -  RELEASE   -
                                (GIT: $679e74b$)
                          ($2025-06-10 18:02:51 +0200$)


 With contributions from (in alphabetic order):
[Max-Planck-Institut fuer Kohlenforschung]                               
  Daniel Aravena         : Magnetic Suceptibility                        
  Michael Atanasov       : Ab Initio Ligand Field Theory (pilot matlab implementation)
  Alexander A. Auer      : GIAO ZORA, VPT2 properties, NMR spectrum      
  Ute Becker             : All parallelization in ORCA, NUMFREQ, NUMCALC 
  Giovanni Bistoni       : ED, misc. LED, open-shell LED, HFLD           
  Dmytro Bykov           : pre 5.0 version of the SCF Hessian            
  Marcos Casanova-Páez   : Triplet and SCS-CIS(D). UHF-(DLPNO)-IP/EA/STEOM-CCSD. UHF-CVS-IP/STEOM-CCSD   
  Vijay G. Chilkuri      : MRCI spin determinant printing, contributions to CSF-ICE 
  Pauline Colinet        : FMM embedding                                 
  Dipayan Datta          : RHF DLPNO-CCSD density                        
  Achintya Kumar Dutta   : EOM-CC, STEOM-CC                              
  Nicolas Foglia         : Exact transition moments, OPA infrastructure, MCD improvements    
  Dmitry Ganyushin       : Spin-Orbit,Spin-Spin,Magnetic field MRCI      
  Miquel Garcia-Rates    : C-PCM and meta-GGA Hessian, CCSD/C-PCM, Gaussian charge scheme 
  Tiago L. C. Gouveia    : GS-ROHF, GS-ROCIS                             
  Yang Guo               : DLPNO-NEVPT2, F12-NEVPT2, CIM, IAO-localization        
  Andreas Hansen         : Spin unrestricted coupled pair/coupled cluster methods 
  Ingolf Harden          : AUTO-CI MPn and infrastructure                
  Benjamin Helmich-Paris : MC-RPA, TRAH-(SCF,CASSCF), AVAS, COSX integrals, SCF dyn. polar., MC-PDFT, srDFT 
  Lee Huntington         : MR-EOM, pCC                                   
  Robert Izsak           : Overlap fitted RIJCOSX, COSX-SCS-MP3, EOM     
  Riya Kayal             : Wick's Theorem for AUTO-CI, AUTO-CI UHF-CCSDT 
  Emily Kempfer          : AUTO-CI RHF CISDT and CCSDT, approximate NEVPT4
  Christian Kollmar      : KDIIS, OOCD, Brueckner-CCSD(T), CCSD density, CASPT2, CASPT2-K, improved NEVPT2 
  Axel Koslowski         : Symmetry handling                             
  Simone Kossmann        : meta-GGA functionals, TD-DFT gradient, OOMP2, (MP2 Hessian; deprecated post 5.0) 
  Lucas Lang             : DCDCAS, Hyperfine gauge corrections, ICE-SOC+SSC
  Marvin Lechner         : AUTO-CI (C++ implementation), FIC-MRCC        
  Spencer Leger          : CASSCF response                               
  Dagmar Lenk            : GEPOL surface, SMD, ORCA-2-JSON               
  Dimitrios Liakos       : Extrapolation schemes; Compound Job, Property file
  Dimitrios Manganas     : Further ROCIS development; embedding schemes. LFT, Crystal Embedding 
  Dimitrios Pantazis     : SARC Basis sets                               
  Anastasios Papadopoulos: AUTO-CI, single reference methods and gradients 
  Taras Petrenko         : pre 6.0 DFT Hessian and TD-DFT gradient,  ECA, NRVS 
  Petra Pikulova         : Analytic Raman intensities                    
  Peter Pinski           : DLPNO-MP2, DLPNO-MP2 Gradient                 
  Shashank Vittal Rao    : ES-AILFT, MagRelax                            
  Christoph Reimann      : Effective Core Potentials                     
  Marius Retegan         : Local ZFS, SOC                                
  Christoph Riplinger    : Optimizer, TS searches, QM/MM, DLPNO-CCSD(T), (RO)-DLPNO pert. Triples 
  Michael Roemelt        : Original ROCIS implementation, recursive CI coupling coefficients
  Masaaki Saitow         : Open-shell DLPNO-CCSD energy and density      
  Barbara Sandhoefer     : DKH picture change effects                    
  Yorick L. A. Schmerwitz: GMF and freeze-and-release deltaSCF, NEB S-IDPP initial path                    
  Kantharuban Sivalingam : CASSCF convergence/infrastructure, NEVPT2, NEVPT3, NEVPT4(SD), FIC-MRCI and CEPA variants
  Bernardo de Souza      : ESD, SOC TD-DFT                               
  Georgi L. Stoychev     : AutoAux, RI-MP2 NMR, DLPNO-MP2 response, X2C  
  Van Anh Tran           : RI-MP2 g-tensors                              
  Willem Van den Heuvel  : Paramagnetic NMR                              
  Zikuan Wang            : NOTCH, Electric field optimization            
  Frank Wennmohs         : Technical directorship and infrastructure     
  Hang Xu                : AUTO-CI-Response properties                   
                                                                         
[FACCTs GmbH]                                                            
  Markus Bursch, Nicolas Foglia, Miquel Garcia-Rates, Ingolf Harden, Hagen Neugebauer, Anastasios Papadopoulos, 
  Christoph Riplinger, Bernardo de Souza, Georgi L. Stoychev                                                    
                                                                 
  APM, various basis sets, CI-OPT, improved COSX, DLPNO-Multilevel,           
  DOCKER, DRACO, updates on ESD, Fragmentator, GOAT, IRC, LR-CPCM, L-BFGS, MBIS, meta-GGA TD-DFT gradient, ML-optimized integration grids, 
  MM, NACMEs, nearIR, NEB, NEB-TS, NL-DFT gradient (VV10), 2- and 3-layer-ONIOM, interface openCOSMO-RS, QMMM,   
  Crystal-QMMM, RESP, rigid body optimization, SF, symmetry and pop. for TD-DFT, various functionals, SOLVATOR                                   
                                                                         
[Other institutions]                                                     
  V. Asgeirsson          : NEB                                           
  Christoph Bannwarth    : sTDA-DFT, sTD-DFT, PBEh-3c, B97-3c, D3        
  Giovanni Bistoni       : ETS/NOCV, ADLD/ADEX, COVALED                  
  Martin Brehm           : Molecular dynamics                            
  Ronald Cardenas        : ETS/NOCV                                      
  Martina Colucci        : COVALED                                       
  Sebastian Ehlert       : rSCAN, r2SCAN, r2SCAN-3c, D4, dhf basis sets  
  Marvin Friede          : D4 for Fr, Ra, Ac-Lr                          
  Lars Goerigk           : TD-DFT with DH, B97 family of functionals     
  Stefan Grimme          : VdW corrections, initial TS optimization, DFT functionals, gCP, sTDA/sTD-DF 
  Waldemar Hujo          : DFT-NL                                        
  H. Jonsson             : NEB                                           
  Holger Kruse           : gCP                                           
  Marcel Mueller         : wB97X-3c, vDZP basis set                      
  Hagen Neugebauer       : wr2SCAN, Native XTB                           
  Gianluca Regni         : ADLD/ADEX                                     
  Tobias Risthaus        : pre 6.0 range-separated hybrid DFT and stability analysis
  Lukas Wittmann         : regularized MP2, r2SCAN double-hybrids, wr2SCAN        
                                                                         
We gratefully acknowledge several colleagues who have allowed us to      
interface, adapt or use parts of their codes:                            
  Ed Valeev, F. Pavosevic, A. Kumar             : LibInt (2-el integral package), F12 methods 
  Garnet Chan, S. Sharma, J. Yang, R. Olivares  : DMRG                   
  Ulf Ekstrom                                   : XCFun DFT Library      
  Mihaly Kallay                                 : mrcc  (arbitrary order and MRCC methods)
  Frank Weinhold                                : gennbo (NPA and NBO analysis)           
  Simon Mueller                                 : openCOSMO-RS                            
  Christopher J. Cramer and Donald G. Truhlar   : smd solvation model                     
  S Lehtola, MJT Oliveira, MAL Marques          : LibXC Library                           
  Liviu Ungur et al                             : ANISO software                          


 Your calculation uses the libint2 library for the computation of 2-el integrals
 For citations please refer to: http://libint.valeyev.net

 Your ORCA version has been built with support for libXC version: 7.0.0
 For citations please refer to: https://libxc.gitlab.io

 This ORCA versions uses:
   CBLAS   interface :  Fast vector & matrix operations
   LAPACKE interface :  Fast linear algebra routines
   SCALAPACK package :  Parallel linear algebra routines
   Shared memory     :  Shared parallel matrices
   BLAS/LAPACK       :  OpenBLAS 0.3.29  USE64BITINT DYNAMIC_ARCH NO_AFFINITY Bulldozer SINGLE_THREADED
        Core in use  :  Bulldozer
   Copyright (c) 2011-2014, The OpenBLAS Project


  ***********************************
  * Starting time: Thu Aug 14 15:36:23 2025
  * Host name:     chromium03
  * Process ID:    233620
  * Working dir.:  /local/scratch/mehlhorn/61908
  ***********************************



***************************************
The coordinates will be read from file: start.xyz
***************************************


Your calculation utilizes the atom-pairwise dispersion correction
with the Becke-Johnson damping scheme (D3BJ)


Warning: RI is on but no J-basis has been assigned. Assigning Def2/J (nothing to worry about!)
================================================================================

----- Orbital basis set information -----
Your calculation utilizes the basis: def2-TZVP
   F. Weigend and R. Ahlrichs, Phys. Chem. Chem. Phys. 7, 3297 (2005).

----- AuxJ basis set information -----
Your calculation utilizes the auxiliary basis: def2/J
   H-Rn: F. Weigend, Phys. Chem. Chem. Phys. 8, 1057 (2006).
   Fr-Lr: K. Eichkorn, F. Weigend, O. Treutler, R. Ahlrichs; Theor. Chem. Acc. 97, 119 (1997).

================================================================================
                                        WARNINGS
                       Please study these warnings very carefully!
================================================================================


WARNING: Geometry Optimization
  ===> : Switching off AutoStart
         For restart on a previous wavefunction, please use MOREAD

================================================================================
                                       INPUT FILE
================================================================================
NAME = run.inp
|  1> # Geometry optimization for (AlH3)n cluster
|  2> 
|  3> %pal nprocs 24  end
|  4> 
|  5> %geom MaxIter 500 end
|  6> 
|  7> 
|  8> ! PBE def2-TZVP
|  9> ! RKS	# closed shell for AlH3
| 10> ! D3    #  dispersion correction
| 11> ! Freq 	# Frequency analysis to check the stabiltity of the structures
| 12> 
| 13> ! NoPop # population analysis not necessary	
| 14> 
| 15> ! DEFGRID3
| 16> ! TightSCF
| 17> ! TightOpt
| 18> 
| 19> ! SmallPrint
| 20> 
| 21> 
| 22> * xyzFile 0 1 start.xyz # only maingroup elements H and Al so there should be no net spin
| 23> 
| 24>                          ****END OF INPUT****
================================================================================

                       *****************************
                       * Geometry Optimization Run *
                       *****************************

Geometry optimization settings:
Update method            Update   .... BFGS
Choice of coordinates    CoordSys .... (2022) Redundant Internals
Initial Hessian          InHess   .... Almloef's Model
Max. no of cycles        MaxIter  .... 500

Convergence Tolerances:
Energy Change            TolE     ....  1.0000e-06 Eh
Max. Gradient            TolMAXG  ....  1.0000e-04 Eh/bohr
RMS Gradient             TolRMSG  ....  3.0000e-05 Eh/bohr
Max. Displacement        TolMAXD  ....  1.0000e-03 bohr
RMS Displacement         TolRMSD  ....  6.0000e-04 bohr
Strict Convergence                .... False

------------------------------------------------------------------------------
                        ORCA OPTIMIZATION COORDINATE SETUP
------------------------------------------------------------------------------

The optimization will be done in redundant internal coordinates (2022)
Making redundant internal coordinates   ...  (2022 redundants) done
Evaluating the initial hessian          ...  (Almloef) done
Evaluating the coordinates              ...  done
Calculating the B-matrix                .... done
Calculating the G-matrix                .... done
The number of degrees of freedom        ....   51

    -----------------------------------------------------------------
                    Redundant Internal Coordinates


    -----------------------------------------------------------------
         Definition                    Initial Value    Approx d2E/dq
    -----------------------------------------------------------------
      1. B(Al  1,Al  0)                  2.6205         0.333947   
      2. B(H   2,Al  0)                  1.7520         0.221759   
      3. B(H   2,Al  1)                  1.7520         0.221757   
      4. B(H   3,Al  1)                  1.5899         0.402252   
      5. B(H   4,Al  1)                  1.7520         0.221760   
      6. B(H   4,Al  0)                  1.7520         0.221758   
      7. B(H   5,Al  0)                  1.5898         0.402371   
      8. B(H   6,Al  0)                  1.5898         0.402278   
      9. B(H   7,Al  1)                  1.5898         0.402367   
     10. A(H   2,Al  0,H   5)          108.9298         0.347712   
     11. A(Al  1,Al  0,H   5)          116.0477         0.435220   
     12. A(H   4,Al  0,H   6)          108.7832         0.347698   
     13. A(H   4,Al  0,H   5)          108.9383         0.347712   
     14. A(Al  1,Al  0,H   4)           41.5928         0.391543   
     15. A(H   2,Al  0,H   4)           83.1834         0.315075   
     16. A(Al  1,Al  0,H   2)           41.5929         0.391544   
     17. A(H   5,Al  0,H   6)          128.7810         0.385045   
     18. A(H   2,Al  0,H   6)          108.7908         0.347699   
     19. A(Al  1,Al  0,H   6)          115.1713         0.435201   
     20. A(H   4,Al  1,H   7)          108.9338         0.347712   
     21. A(H   2,Al  1,H   3)          108.7891         0.347695   
     22. A(H   3,Al  1,H   4)          108.7868         0.347695   
     23. A(Al  0,Al  1,H   2)           41.5928         0.391543   
     24. A(H   2,Al  1,H   4)           83.1834         0.315075   
     25. A(Al  0,Al  1,H   4)           41.5928         0.391544   
     26. A(Al  0,Al  1,H   3)          115.1726         0.435196   
     27. A(Al  0,Al  1,H   7)          116.0466         0.435219   
     28. A(H   2,Al  1,H   7)          108.9328         0.347711   
     29. A(H   3,Al  1,H   7)          128.7808         0.385040   
     30. A(Al  0,H   2,Al  1)           96.8143         0.315075   
     31. A(Al  0,H   4,Al  1)           96.8144         0.315075   
     32. D(H   4,Al  1,Al  0,H   2)   -179.2452         0.010000   
     33. D(H   3,Al  1,Al  0,H   4)    -90.3757         0.010000   
     34. D(H   3,Al  1,Al  0,H   2)     90.3792         0.010000   
     35. D(H   2,Al  1,Al  0,H   6)    -90.3834         0.010000   
     36. D(H   3,Al  1,Al  0,H   5)    179.9950         0.010000   
     37. D(H   3,Al  1,Al  0,H   6)     -0.0042         0.010000   
     38. D(H   2,Al  1,Al  0,H   5)     89.6159         0.010000   
     39. D(H   2,Al  1,Al  0,H   4)    179.2452         0.010000   
     40. D(Al  0,H   2,Al  1,H   7)    108.2311         0.010000   
     41. D(Al  0,H   2,Al  1,H   4)      0.5046         0.010000   
     42. D(Al  0,H   2,Al  1,H   3)   -107.0689         0.010000   
     43. D(Al  1,H   2,Al  0,H   6)    107.0650         0.010000   
     44. D(Al  1,H   2,Al  0,H   5)   -108.2359         0.010000   
     45. D(Al  1,H   2,Al  0,H   4)     -0.5046         0.010000   
     46. D(Al  1,H   4,Al  0,H   2)      0.5046         0.010000   
     47. D(Al  0,H   4,Al  1,H   7)   -108.2300         0.010000   
     48. D(Al  0,H   4,Al  1,H   3)    107.0713         0.010000   
     49. D(Al  0,H   4,Al  1,H   2)     -0.5046         0.010000   
     50. D(Al  1,H   4,Al  0,H   6)   -107.0732         0.010000   
     51. D(Al  1,H   4,Al  0,H   5)    108.2268         0.010000   
    -----------------------------------------------------------------

Number of atoms                         .... 8
Number of degrees of freedom            .... 51


         *************************************************************
         *                GEOMETRY OPTIMIZATION CYCLE   1            *
         *************************************************************
---------------------------------
CARTESIAN COORDINATES (ANGSTROEM)
---------------------------------
  Al     0.000069   -0.002505    2.344866
  Al    -0.000313   -0.001970   -0.275659
  H      1.162052   -0.046386    1.034427
  H     -0.064546   -1.439280   -0.952188
  H     -1.161612    0.057218    1.034783
  H      0.063958    1.424238    3.043253
  H     -0.064074   -1.440086    3.020785
  H      0.063226    1.425080   -0.973457

----------------------------
CARTESIAN COORDINATES (A.U.)
----------------------------
  NO LB      ZA    FRAG     MASS         X           Y           Z
   0 Al   13.0000    0    26.982    0.000130   -0.004733    4.431154
   1 Al   13.0000    0    26.982   -0.000591   -0.003723   -0.520920
   2 H     1.0000    0     1.008    2.195960   -0.087657    1.954784
   3 H     1.0000    0     1.008   -0.121974   -2.719845   -1.799374
   4 H     1.0000    0     1.008   -2.195129    0.108126    1.955456
   5 H     1.0000    0     1.008    0.120862    2.691420    5.750914
   6 H     1.0000    0     1.008   -0.121082   -2.721367    5.708457
   7 H     1.0000    0     1.008    0.119480    2.693011   -1.839566

--------------------------------
INTERNAL COORDINATES (ANGSTROEM)
--------------------------------
 Al     0   0   0     0.000000000000     0.00000000     0.00000000
 Al     1   0   0     2.620524660154     0.00000000     0.00000000
 H      1   2   0     1.751964565027    41.59287200     0.00000000
 H      2   1   3     1.589867029920   115.17261706    90.37916075
 H      2   1   3     1.751964072067    41.59284520   180.75481680
 H      1   2   3     1.589786543473   116.04767467    89.61588836
 H      1   2   3     1.589849366564   115.17128290   269.61659050
 H      2   1   3     1.589789322045   116.04659408   270.37820043

---------------------------
INTERNAL COORDINATES (A.U.)
---------------------------
 Al     0   0   0     0.000000000000     0.00000000     0.00000000
 Al     1   0   0     4.952073934878     0.00000000     0.00000000
 H      1   2   0     3.310733224236    41.59287200     0.00000000
 H      2   1   3     3.004413275900   115.17261706    90.37916075
 H      2   1   3     3.310732292677    41.59284520   180.75481680
 H      1   2   3     3.004261178558   116.04767467    89.61588836
 H      1   2   3     3.004379896994   115.17128290   269.61659050
 H      2   1   3     3.004266429297   116.04659408   270.37820043

---------------------
BASIS SET INFORMATION
---------------------
There are 2 groups of distinct atoms

 Group   1 Type Al  : 14s9p3d1f contracted to 5s5p2d1f pattern {73211/51111/21/1}
 Group   2 Type H   : 5s1p contracted to 3s1p pattern {311/1}

Atom   0Al   basis set group =>   1
Atom   1Al   basis set group =>   1
Atom   2H    basis set group =>   2
Atom   3H    basis set group =>   2
Atom   4H    basis set group =>   2
Atom   5H    basis set group =>   2
Atom   6H    basis set group =>   2
Atom   7H    basis set group =>   2
---------------------------------
AUXILIARY/J BASIS SET INFORMATION
---------------------------------
There are 2 groups of distinct atoms

 Group   1 Type Al  : 14s5p5d2f1g contracted to 8s4p3d1f1g pattern {71111111/2111/311/2/1}
 Group   2 Type H   : 5s2p1d contracted to 3s1p1d pattern {311/2/1}

Atom   0Al   basis set group =>   1
Atom   1Al   basis set group =>   1
Atom   2H    basis set group =>   2
Atom   3H    basis set group =>   2
Atom   4H    basis set group =>   2
Atom   5H    basis set group =>   2
Atom   6H    basis set group =>   2
Atom   7H    basis set group =>   2


           ************************************************************
           *        Program running with 24 parallel MPI-processes    *
           *              working on a common directory               *
           ************************************************************
------------------------------------------------------------------------------
                             ORCA STARTUP CALCULATIONS
                           -- RI-GTO INTEGRALS CHOSEN --
------------------------------------------------------------------------------
------------------------------------------------------------------------------
                   ___                                                        
                  /   \      - P O W E R E D   B Y -                         
                 /     \                                                     
                 |  |  |   _    _      __       _____    __    __             
                 |  |  |  | |  | |    /  \     |  _  \  |  |  /  |          
                  \  \/   | |  | |   /    \    | | | |  |  | /  /          
                 / \  \   | |__| |  /  /\  \   | |_| |  |  |/  /          
                |  |  |   |  __  | /  /__\  \  |    /   |      \           
                |  |  |   | |  | | |   __   |  |    \   |  |\   \          
                \     /   | |  | | |  |  |  |  | |\  \  |  | \   \       
                 \___/    |_|  |_| |__|  |__|  |_| \__\ |__|  \__/        
                                                                              
                      - O R C A' S   B I G   F R I E N D -                    
                                      &                                       
                       - I N T E G R A L  F E E D E R -                       
                                                                              
 v1 FN, 2020, v2 2021, v3 2022-2024                                           
------------------------------------------------------------------------------


----------------------
SHARK INTEGRAL PACKAGE
----------------------

Number of atoms                             ...      8
Number of basis functions                   ...    110
Number of shells                            ...     50
Maximum angular momentum                    ...      3
Integral batch strategy                     ... SHARK/LIBINT Hybrid
RI-J (if used) integral strategy            ... SPLIT-RIJ (Revised 2003 algorithm where possible)
Printlevel                                  ...      1
Contraction scheme used                     ... SEGMENTED contraction
Prescreening option                         ... SCHWARTZ
   Thresh                                   ... 2.500e-11
   Tcut                                     ... 2.500e-12
   Tpresel                                  ... 2.500e-12 
Coulomb Range Separation                    ... NOT USED
Exchange Range Separation                   ... NOT USED
Multipole approximations                    ... NOT USED
Finite Nucleus Model                        ... NOT USED
CABS basis                                  ... NOT available
Auxiliary Coulomb fitting basis             ... AVAILABLE
   # of basis functions in Aux-J            ...    168
   # of shells in Aux-J                     ...     64
   Maximum angular momentum in Aux-J        ...      4
Auxiliary J/K fitting basis                 ... NOT available
Auxiliary Correlation fitting basis         ... NOT available
Auxiliary 'external' fitting basis          ... NOT available

Checking pre-screening integrals            ... done (  0.0 sec) Dimension = 50
   => SHARK Basis and OBASIS are compatible. Storing Pre-screening
Shell pair information
Shell pair cut-off parameter TPreSel        ...   2.5e-12
Total number of shell pairs                 ...      1275
Shell pairs after pre-screening             ...      1222
Total number of primitive shell pairs       ...      4185
Primitive shell pairs kept                  ...      3236
          la=0 lb=0:    390 shell pairs
          la=1 lb=0:    420 shell pairs
          la=1 lb=1:    127 shell pairs
          la=2 lb=0:    112 shell pairs
          la=2 lb=1:     64 shell pairs
          la=2 lb=2:     10 shell pairs
          la=3 lb=0:     56 shell pairs
          la=3 lb=1:     32 shell pairs
          la=3 lb=2:      8 shell pairs
          la=3 lb=3:      3 shell pairs

Checking whether 4 symmetric matrices of dimension 110 fit in memory
:Max Core in MB      =   4096.00
 MB in use           =      4.80
 MB left             =   4091.20
 MB needed           =      0.19
 Data fit in memory  = YES
Calculating RI/J V-Matrix + Cholesky decomp.... done (  0.0 sec)
Calculating Nuclear repulsion               ... done (  0.0 sec) ENN=     77.408312795616 Eh

Diagonalization of the overlap matrix:
Smallest eigenvalue                        ... 1.851e-03
Time for diagonalization                   ...    0.024 sec
Threshold for overlap eigenvalues          ... 1.000e-07
Number of eigenvalues below threshold      ... 0
Time for construction of square roots      ...    0.001 sec
Total time needed                          ...    0.028 sec

-------------------
DFT GRID GENERATION
-------------------

General Integration Accuracy     IntAcc      ... 4.959
Radial Grid Type                 RadialGrid  ... OptM3 with GC (2021)
Angular Grid (max. ang.)         AngularGrid ... 6 (Lebedev-590)
Angular grid pruning method      GridPruning ... 4 (adaptive)
Weight generation scheme         WeightScheme... mBecke (2022)
Basis function cutoff            BFCut       ... 1.0000e-11
Integration weight cutoff        WCut        ... 1.0000e-14
Partially contracted basis set               ... off
Rotationally invariant grid construction     ... off
Angular grids for H and He will be reduced by one unit

Total number of grid points                  ...    86197
Total number of batches                      ...     1352
Average number of points per batch           ...       63
Average number of grid points per atom       ...    10775
Grids setup in   2.0 sec
Initializing property integral containers    ... done (  0.0 sec)

SHARK setup successfully completed in   2.6 seconds

Maximum memory used throughout the entire STARTUP-calculation: 20.3 MB


           ************************************************************
           *        Program running with 24 parallel MPI-processes    *
           *              working on a common directory               *
           ************************************************************
-------------------------------------------------------------------------------
                                 ORCA GUESS
                   Start orbitals & Density for SCF / CASSCF
-------------------------------------------------------------------------------

------------
SCF SETTINGS
------------
Hamiltonian:
 Density Functional     Method          .... DFT(GTOs)
 Exchange Functional    Exchange        .... PBE
   PBE kappa parameter   XKappa         ....  0.804000
   PBE mue parameter    XMuePBE         ....  0.219520
 Correlation Functional Correlation     .... PBE
   PBE beta parameter  CBetaPBE         ....  0.066725
 LDA part of GGA corr.  LDAOpt          .... PW91-LDA
 Gradients option       PostSCFGGA      .... off
   NL short-range parameter             ....  6.400000
 RI-approximation to the Coulomb term is turned on
   Number of AuxJ basis functions       .... 168


General Settings:
 Integral files         IntName         .... run
 Hartree-Fock type      HFTyp           .... RHF
 Total Charge           Charge          ....    0
 Multiplicity           Mult            ....    1
 Number of Electrons    NEL             ....   32
 Basis Dimension        Dim             ....  110
 Nuclear Repulsion      ENuc            ....     77.4083127956 Eh

Convergence Acceleration:
 AO-DIIS                CNVDIIS         .... on
   Start iteration      DIISMaxIt       ....    12
   Startup error        DIISStart       ....  0.200000
   # of expansion vecs  DIISMaxEq       ....     5
   Bias factor          DIISBfac        ....   1.050
   Max. coefficient     DIISMaxC        ....  10.000
 MO-DIIS                CNVKDIIS        .... off
 Trust-Rad. Augm. Hess. CNVTRAH         .... auto
   Auto Start mean grad. ratio tolernc. ....  1.125000
   Auto Start start iteration           ....    50
   Auto Start num. interpolation iter.  ....    10
   Max. Number of Micro iterations      ....    24
   Max. Number of Macro iterations      .... Maxiter - #DIIS iter
   Number of Davidson start vectors     ....     2
   Converg. threshold    (grad. norm)   ....   1.000e-05
   Grad. Scal. Fac. for Micro threshold ....   0.100
   Minimum threshold for Micro iter.    ....   1.000e-02
   NR start threshold (gradient norm)   ....   1.000e-04
   Initial trust radius                 ....   0.400
   Minimum AH scaling param. (alpha)    ....   1.000
   Maximum AH scaling param. (alpha)    .... 1000.000
   Quad. conv. algorithm                .... NR
   White noise on init. David. guess    .... on
   Maximum white noise                  ....   0.010
   Pseudo random numbers                .... off
   Inactive MOs                         .... canonical
   Orbital update algorithm             .... Taylor
   Preconditioner                       .... Diag
   Full preconditioner red. dimension   ....   250
 SOSCF                 CNVSOSCF           .... on
   Start iteration     SOSCFMaxIt         ....   150
   Startup grad/error  SOSCFStart         ....  0.003300
   Hessian update      SOSCFHessUp        .... L-BFGS
   Autom. constraints  SOSCFAutoConstrain .... off
 Level Shifting         CNVShift        .... on
   Level shift para.    LevelShift      ....    0.2500
   Turn off err/grad.   ShiftErr        ....    0.0010
 Zerner damping         CNVZerner       .... off
 Static damping         CNVDamp         .... on
   Fraction old density DampFac         ....    0.7000
   Max. Damping (<1)    DampMax         ....    0.9800
   Min. Damping (>=0)   DampMin         ....    0.0000
   Turn off err/grad.   DampErr         ....    0.1000

SCF Procedure:
 Maximum # iterations   MaxIter         ....   125
 SCF integral mode      SCFMode         .... Direct
   Integral package                     .... SHARK and LIBINT hybrid scheme
 Reset frequency        DirectResetFreq ....    20
 Integral Threshold     Thresh          ....  2.500e-11 Eh
 Primitive CutOff       TCut            ....  2.500e-12 Eh

Convergence Tolerance:
 Convergence Check Mode ConvCheckMode   .... Total+1el-Energy
 Convergence forced     ConvForced      .... 0
 Energy Change          TolE            ....  1.000e-08 Eh
 1-El. energy change                    ....  1.000e-05 Eh
 Orbital Gradient       TolG            ....  1.000e-05
 Orbital Rotation angle TolX            ....  1.000e-05
 DIIS Error             TolErr          ....  5.000e-07

------------------------------
INITIAL GUESS: MODEL POTENTIAL
------------------------------
Loading Hartree-Fock densities                     ... done
Calculating cut-offs                               ... done
Initializing the effective Hamiltonian             ... done
Setting up the integral package (SHARK)            ... done
Starting the Coulomb interaction                   ... done (   0.1 sec)
Making the grid                                    ... done (   0.1 sec)
Mapping shells                                     ... done
Starting the XC term evaluation                    ... done (   0.0 sec)
  promolecular density results
     # of electrons  =     32.000814344
     EX              =    -37.785443480
     EC              =     -1.092191205
     EX+EC           =    -38.877634685
Transforming the Hamiltonian                       ... done (   0.0 sec)
Diagonalizing the Hamiltonian                      ... done (   0.0 sec)
Back transforming the eigenvectors                 ... done (   0.0 sec)
Now organizing SCF variables                       ... done
                      ------------------
                      INITIAL GUESS DONE (   0.2 sec)
                      ------------------
             **** ENERGY FILE WAS UPDATED (run.en.tmp) ****
Finished Guess after   0.8 sec
Maximum memory used throughout the entire GUESS-calculation: 8.4 MB


           ************************************************************
           *        Program running with 24 parallel MPI-processes    *
           *              working on a common directory               *
           ************************************************************

-------------------------------------------------------------------------------------------
                                      ORCA LEAN-SCF
                              memory conserving SCF solver
-------------------------------------------------------------------------------------------

----------------------------------------D-I-I-S--------------------------------------------
Iteration    Energy (Eh)           Delta-E    RMSDP     MaxDP     DIISErr   Damp  Time(sec)
-------------------------------------------------------------------------------------------
               ***  Starting incremental Fock matrix formation  ***
    1    -488.1365331665861049     0.00e+00  4.57e-03  1.75e-02  8.36e-02  0.700   0.3
    2    -488.1457990322581963    -9.27e-03  4.20e-03  1.63e-02  5.69e-02  0.700   0.2
                               ***Turning on AO-DIIS***
    3    -488.1518165328110399    -6.02e-03  2.44e-03  9.15e-03  3.43e-02  0.700   0.2
    4    -488.1554123478565543    -3.60e-03  4.99e-03  1.84e-02  2.24e-02  0.000   0.2
                              *** Initializing SOSCF ***
---------------------------------------S-O-S-C-F--------------------------------------
Iteration    Energy (Eh)           Delta-E    RMSDP     MaxDP     MaxGrad    Time(sec)
--------------------------------------------------------------------------------------
    5    -488.1625610189703366    -7.15e-03  4.31e-04  1.80e-03  1.60e-03     0.2
               *** Restarting incremental Fock matrix formation ***
    6    -488.1625792824256678    -1.83e-05  2.72e-04  8.34e-04  2.61e-04     0.2
    7    -488.1625812231332020    -1.94e-06  8.86e-05  5.46e-04  1.74e-04     0.2
    8    -488.1625818585885099    -6.35e-07  3.13e-05  2.09e-04  3.54e-05     0.2
    9    -488.1625818744032586    -1.58e-08  1.14e-05  6.20e-05  2.35e-05     0.2
   10    -488.1625818870966214    -1.27e-08  1.20e-06  6.19e-06  2.44e-06     0.2
                  *** Gradient check signals convergence ***

               *****************************************************
               *                     SUCCESS                       *
               *           SCF CONVERGED AFTER  10 CYCLES          *
               *****************************************************

             **** ENERGY FILE WAS UPDATED (run.en.tmp) ****

----------------
TOTAL SCF ENERGY
----------------

Total Energy       :       -488.16258188423637 Eh          -13283.57918 eV

Components:
Nuclear Repulsion  :         77.40831279561573 Eh            2106.38728 eV
Electronic Energy  :       -565.57089467985224 Eh          -15389.96646 eV
One Electron Energy:       -831.64692612280669 Eh          -22630.26336 eV
Two Electron Energy:        266.07603144295450 Eh            7240.29691 eV

Virial components:
Potential Energy   :       -975.20291437400670 Eh          -26536.62040 eV
Kinetic Energy     :        487.04033248977032 Eh           13253.04122 eV
Virial Ratio       :          2.00230422270930

DFT components:
N(Alpha)           :       16.000000346940 electrons
N(Beta)            :       16.000000346940 electrons
N(Total)           :       32.000000693881 electrons
E(X)               :      -38.094938506165 Eh       
E(C)               :       -1.085502977976 Eh       
E(XC)              :      -39.180441484140 Eh       

---------------
SCF CONVERGENCE
---------------

  Last Energy change         ...    1.2693e-08  Tolerance :   1.0000e-08
  Last MAX-Density change    ...    6.1887e-06  Tolerance :   1.0000e-07
  Last RMS-Density change    ...    1.2047e-06  Tolerance :   5.0000e-09
  Last DIIS Error            ...    1.5959e-03  Tolerance :   5.0000e-07
  Last Orbital Gradient      ...    2.4355e-06  Tolerance :   1.0000e-05
  Last Orbital Rotation      ...    4.8125e-06  Tolerance :   1.0000e-05


----------------
ORBITAL ENERGIES
----------------

  NO   OCC          E(Eh)            E(eV) 
   0   2.0000     -55.376588     -1506.8736 
   1   2.0000     -55.376576     -1506.8733 
   2   2.0000      -3.937551      -107.1462 
   3   2.0000      -3.937500      -107.1448 
   4   2.0000      -2.543414       -69.2098 
   5   2.0000      -2.543345       -69.2079 
   6   2.0000      -2.539980       -69.1164 
   7   2.0000      -2.539340       -69.0990 
   8   2.0000      -2.534952       -68.9796 
   9   2.0000      -2.534899       -68.9781 
  10   2.0000      -0.465610       -12.6699 
  11   2.0000      -0.350523        -9.5382 
  12   2.0000      -0.316808        -8.6208 
  13   2.0000      -0.293388        -7.9835 
  14   2.0000      -0.283876        -7.7247 
  15   2.0000      -0.269864        -7.3434 
  16   0.0000      -0.070227        -1.9110 
  17   0.0000      -0.023177        -0.6307 
  18   0.0000      -0.017626        -0.4796 
  19   0.0000      -0.015589        -0.4242 
  20   0.0000      -0.002261        -0.0615 
  21   0.0000       0.017230         0.4688 
  22   0.0000       0.038303         1.0423 
  23   0.0000       0.071779         1.9532 
  24   0.0000       0.100040         2.7222 
  25   0.0000       0.116401         3.1674 
  26   0.0000       0.117994         3.2108 
*Only the first 10 virtual orbitals were printed.
-------
TIMINGS
-------

Total SCF time: 0 days 0 hours 0 min 2 sec 

Total time                  ....       2.719 sec
Sum of individual times     ....       2.442 sec  ( 89.8%)

SCF preparation             ....       0.623 sec  ( 22.9%)
Fock matrix formation       ....       1.469 sec  ( 54.0%)
  Startup                   ....       0.013 sec  (  0.9% of F)
  Split-RI-J                ....       0.293 sec  ( 20.0% of F)
  XC integration            ....       1.189 sec  ( 80.9% of F)
    XC Preparation          ....       0.000 sec  (  0.0% of XC)
    Basis function eval.    ....       0.285 sec  ( 24.0% of XC)
    Density eval.           ....       0.165 sec  ( 13.9% of XC)
    XC-Functional eval.     ....       0.049 sec  (  4.1% of XC)
    XC-Potential eval.      ....       0.187 sec  ( 15.7% of XC)
Diagonalization             ....       0.000 sec  (  0.0%)
Density matrix formation    ....       0.062 sec  (  2.3%)
Total Energy calculation    ....       0.026 sec  (  1.0%)
Population analysis         ....       0.000 sec  (  0.0%)
Orbital Transformation      ....       0.027 sec  (  1.0%)
Orbital Orthonormalization  ....       0.000 sec  (  0.0%)
DIIS solution               ....       0.128 sec  (  4.7%)
SOSCF solution              ....       0.107 sec  (  3.9%)
Finished LeanSCF after   2.7 sec

Maximum memory used throughout the entire LEANSCF-calculation: 6.6 MB


           ************************************************************
           *        Program running with 24 parallel MPI-processes    *
           *              working on a common directory               *
           ************************************************************

------------------------------------------------------------------------------
                         ORCA PROPERTY INTEGRAL CALCULATIONS
------------------------------------------------------------------------------

GBWName                                   ... run.gbw
Number of atoms                           ...      8
Number of basis functions                 ...    110
Max core memory                           ...   4096 MB

Dipole integrals                          ... YES
Quadrupole integrals                      ...  NO
Linear momentum integrals                 ...  NO
Angular momentum integrals                ...  NO
Higher moments length integrals           ...  NO
Higher moments velocity integrals         ...  NO
Kinetic energy integrals                  ...  NO
GIAO right hand sides                     ...  NO
GIAO dipole derivative integrals          ...  NO
SOC integrals                             ...  NO
EPR diamagnetic integrals (GIAO)          ...  NO
EPR gauge integrals                       ...  NO
Field gradient integrals                  ...  NO (   0 nuclei)
Spin-dipole/Fermi contact integrals       ...  NO (   0 nuclei)
Contact density integrals                 ...  NO (   0 nuclei)
Nucleus-orbit integrals                   ...  NO (   0 nuclei)
Geometric perturbations                   ...  NO (   8 nuclei)

Choice of electric origin   ... Center of mass
Position of electric origin ... ( -0.0002, -0.0044,  1.9551) 
Choice of magnetic origin   ... GIAO
Position of magnetic origin ... (  0.0000,  0.0000,  0.0000) 

Calculating integrals                     ... Electric Dipole (Length)     done (  0.0 sec)

Property integrals calculated in   0.0 sec

Maximum memory used throughout the entire PROPINT-calculation: 8.6 MB


-------------------------------------------------------------------------------
                          DFT DISPERSION CORRECTION                            
                                                                               
                              DFTD3 V3.1  Rev 1                                
                          USING Becke-Johnson damping                          
-------------------------------------------------------------------------------
The PBE functional is recognized
Active option DFTDOPT                   ...         4   

molecular C6(AA) [au] = 1235.435885 


            DFT-D V3
 parameters
 s6 scaling factor         :     1.0000 
 a1 scaling factor         :     0.4289 
 s8 scaling factor         :     0.7875 
 a2 scaling factor         :     4.4407 
 ad hoc parameters k1-k3   :    16.0000     1.3333    -4.0000 

 Edisp/kcal,au: -2.789249029792  -0.004444950790 
 E6   /kcal   :  -1.783585479 
 E8   /kcal   :  -1.005663551 
 % E8         :  36.054993310 

-------------------------   ----------------
Dispersion correction           -0.004444951
-------------------------   ----------------


-------------------------   --------------------
FINAL SINGLE POINT ENERGY      -488.167026835026
-------------------------   --------------------



           ************************************************************
           *        Program running with 24 parallel MPI-processes    *
           *              working on a common directory               *
           ************************************************************
------------------------------------------------------------------------------
                         ORCA SCF GRADIENT CALCULATION
------------------------------------------------------------------------------

Nuc. rep. gradient        (SHARK) ... done (  0.0 sec)
HCore & Overlap gradient  (SHARK) ... done (  0.0 sec)
Split-RIJ-J gradient      (SHARK) ... done (  0.3 sec)
XC gradient                       ... done (  0.5 sec)
Dispersion correction             ... done (  0.1 sec)

-------------------
DISPERSION GRADIENT
-------------------

   1   Al  :    0.000000036    0.000000212    0.000169635
   2   Al  :   -0.000000014    0.000000281   -0.000169636
   3   H   :    0.000058344   -0.000002152   -0.000000008
   4   H   :   -0.000003180   -0.000070891   -0.000109394
   5   H   :   -0.000058304    0.000003048    0.000000009
   6   H   :    0.000003156    0.000070197    0.000109423
   7   H   :   -0.000003154   -0.000070938    0.000109366
   8   H   :    0.000003116    0.000070243   -0.000109394

Difference to translation invariance:
           :   -0.0000000000   -0.0000000000   -0.0000000000

Difference to rotation invariance:
           :   -0.0000000000   -0.0000000000    0.0000000000

Norm of the Dispersion gradient    ...    0.0003635894
RMS gradient                       ...    0.0000742174
MAX gradient                       ...    0.0001696362

------------------
CARTESIAN GRADIENT
------------------

   1   Al  :    0.000000984    0.000025202    0.000446150
   2   Al  :    0.000001263    0.000027451   -0.000444007
   3   H   :   -0.000051677    0.000016027    0.000000691
   4   H   :   -0.000037886   -0.000837958   -0.000166614
   5   H   :    0.000052877    0.000006404   -0.000000494
   6   H   :    0.000037636    0.000798037    0.000242011
   7   H   :   -0.000038790   -0.000834097    0.000163859
   8   H   :    0.000035594    0.000798934   -0.000241596

Difference to translation invariance:
           :    0.0000000000    0.0000000000   -0.0000000000

Difference to rotation invariance:
           :    0.0000000328   -0.0000000039    0.0000002435

Norm of the Cartesian gradient     ...    0.0018037655
RMS gradient                       ...    0.0003681921
MAX gradient                       ...    0.0008379579

-------
TIMINGS
-------

Total SCF gradient time     ....        0.945 sec

Densities                   ....       0.001 sec  (  0.1%)
One electron gradient       ....       0.044 sec  (  4.7%)
RI-J Coulomb gradient       ....       0.297 sec  ( 31.5%)
XC gradient                 ....       0.466 sec  ( 49.3%)

Maximum memory used throughout the entire SCFGRAD-calculation: 27.1 MB
------------------------------------------------------------------------------
                         ORCA GEOMETRY RELAXATION STEP
------------------------------------------------------------------------------

Reading the OPT-File                    .... done
Getting information on internals        .... done
Copying old internal coords+grads       .... done
Making the new internal coordinates     .... (2022 redundants) done
Validating the new internal coordinates .... (2022 redundants) done
Calculating the B-matrix                .... done
Calculating the G,G- and P matrices     .... done
Transforming gradient to internals      .... done
Projecting the internal gradient        .... done
Number of atoms                         ....   8
Number of internal coordinates          ....  51
Current Energy                          ....  -488.167026835 Eh
Current gradient norm                   ....     0.001803765 Eh/bohr
Maximum allowed component of the step   ....  0.300
Current trust radius                    ....  0.300
Evaluating the initial hessian          ....  (Almloef) done
Projecting the Hessian                  .... done
Forming the augmented Hessian           .... done
Diagonalizing the augmented Hessian     .... done
Last element of RFO vector              ....  0.999986736
Lowest eigenvalues of augmented Hessian:
 -0.000009092  0.030800499  0.051996889  0.081977032  0.102472583
Length of the computed step             ....  0.005150610
The final length of the internal step   ....  0.005150610
Converting the step to Cartesian space:
 Initial RMS(Int)=    0.0007212297
Transforming coordinates:
 Iter   0:  RMS(Cart)=    0.0010776933 RMS(Int)=    0.0007212264
done
Storing new coordinates                 .... done

                                .--------------------.
          ----------------------|Geometry convergence|-------------------------
          Item                value                   Tolerance       Converged
          ---------------------------------------------------------------------
          RMS gradient        0.0002581323            0.0000300000      NO
          MAX gradient        0.0008299808            0.0001000000      NO
          RMS step            0.0007212297            0.0006000000      NO
          MAX step            0.0020632881            0.0010000000      NO
          -------------------------------------------------------------------------
          ........................................................
          Max(Bonds)      0.0011      Max(Angles)    0.04
          Max(Dihed)        0.04      Max(Improp)    0.00
          ---------------------------------------------------------------------

The optimization has not yet converged - more geometry cycles are needed


    ---------------------------------------------------------------------------
                         Redundant Internal Coordinates
                            (Angstroem and degrees)

        Definition                    Value    dE/dq     Step     New-Value
    ----------------------------------------------------------------------------
     1. B(Al  1,Al  0)                2.6205  0.000514 -0.0009    2.6196   
     2. B(H   2,Al  0)                1.7520  0.000109 -0.0002    1.7518   
     3. B(H   2,Al  1)                1.7520  0.000109 -0.0002    1.7518   
     4. B(H   3,Al  1)                1.5899  0.000830 -0.0011    1.5888   
     5. B(H   4,Al  1)                1.7520  0.000109 -0.0002    1.7518   
     6. B(H   4,Al  0)                1.7520  0.000109 -0.0002    1.7518   
     7. B(H   5,Al  0)                1.5898  0.000824 -0.0011    1.5887   
     8. B(H   6,Al  0)                1.5898  0.000825 -0.0011    1.5888   
     9. B(H   7,Al  1)                1.5898  0.000825 -0.0011    1.5887   
    10. A(H   2,Al  0,H   5)          108.93 -0.000022    0.01    108.94   
    11. A(Al  1,Al  0,H   5)          116.05 -0.000064    0.01    116.05   
    12. A(H   4,Al  0,H   6)          108.78 -0.000072    0.01    108.79   
    13. A(H   4,Al  0,H   5)          108.94 -0.000021    0.01    108.95   
    14. A(Al  1,Al  0,H   4)           41.59 -0.000080    0.01     41.61   
    15. A(H   2,Al  0,H   4)           83.18 -0.000160    0.03     83.21   
    16. A(Al  1,Al  0,H   2)           41.59 -0.000080    0.01     41.61   
    17. A(H   5,Al  0,H   6)          128.78  0.000198   -0.04    128.74   
    18. A(H   2,Al  0,H   6)          108.79 -0.000071    0.01    108.80   
    19. A(Al  1,Al  0,H   6)          115.17 -0.000134    0.03    115.20   
    20. A(H   4,Al  1,H   7)          108.93 -0.000022    0.01    108.94   
    21. A(H   2,Al  1,H   3)          108.79 -0.000071    0.01    108.80   
    22. A(H   3,Al  1,H   4)          108.79 -0.000071    0.01    108.80   
    23. A(Al  0,Al  1,H   2)           41.59 -0.000080    0.01     41.61   
    24. A(H   2,Al  1,H   4)           83.18 -0.000160    0.03     83.21   
    25. A(Al  0,Al  1,H   4)           41.59 -0.000080    0.01     41.61   
    26. A(Al  0,Al  1,H   3)          115.17 -0.000134    0.03    115.21   
    27. A(Al  0,Al  1,H   7)          116.05 -0.000065    0.01    116.05   
    28. A(H   2,Al  1,H   7)          108.93 -0.000022    0.01    108.94   
    29. A(H   3,Al  1,H   7)          128.78  0.000198   -0.04    128.74   
    30. A(Al  0,H   2,Al  1)           96.81  0.000160   -0.03     96.79   
    31. A(Al  0,H   4,Al  1)           96.81  0.000160   -0.03     96.79   
    32. D(H   4,Al  1,Al  0,H   2)   -179.25  0.000003   -0.03   -179.27   
    33. D(H   3,Al  1,Al  0,H   4)    -90.38 -0.000001    0.01    -90.36   
    34. D(H   3,Al  1,Al  0,H   2)     90.38  0.000002   -0.01     90.36   
    35. D(H   2,Al  1,Al  0,H   6)    -90.38 -0.000002    0.01    -90.37   
    36. D(H   3,Al  1,Al  0,H   5)    180.00 -0.000001    0.00    180.00   
    37. D(H   3,Al  1,Al  0,H   6)     -0.00 -0.000000    0.00     -0.00   
    38. D(H   2,Al  1,Al  0,H   5)     89.62 -0.000003    0.01     89.63   
    39. D(H   2,Al  1,Al  0,H   4)    179.25 -0.000003    0.03    179.27   
    40. D(Al  0,H   2,Al  1,H   7)    108.23 -0.000073    0.00    108.23   
    41. D(Al  0,H   2,Al  1,H   4)      0.50  0.000001   -0.02      0.49   
    42. D(Al  0,H   2,Al  1,H   3)   -107.07  0.000126   -0.04   -107.11   
    43. D(Al  1,H   2,Al  0,H   6)    107.07 -0.000127    0.04    107.10   
    44. D(Al  1,H   2,Al  0,H   5)   -108.24  0.000072    0.00   -108.24   
    45. D(Al  1,H   2,Al  0,H   4)     -0.50 -0.000001    0.02     -0.49   
    46. D(Al  1,H   4,Al  0,H   2)      0.50  0.000001   -0.02      0.49   
    47. D(Al  0,H   4,Al  1,H   7)   -108.23  0.000073   -0.00   -108.23   
    48. D(Al  0,H   4,Al  1,H   3)    107.07 -0.000125    0.04    107.11   
    49. D(Al  0,H   4,Al  1,H   2)     -0.50 -0.000001    0.02     -0.49   
    50. D(Al  1,H   4,Al  0,H   6)   -107.07  0.000126   -0.04   -107.11   
    51. D(Al  1,H   4,Al  0,H   5)    108.23 -0.000074    0.00    108.23   
    ----------------------------------------------------------------------------

Geometry step timings:
Preparation and reading OPT file:      0.000 s ( 0.510 %)
Internal coordinates            :      0.000 s ( 0.486 %)
B/P matrices and projection     :      0.000 s ( 6.033 %)
Hessian update/contruction      :      0.000 s ( 3.642 %)
Making the step                 :      0.006 s (70.126 %)
Converting the step to Cartesian:      0.000 s ( 3.642 %)
Storing new data                :      0.000 s ( 1.347 %)
Checking convergence            :      0.000 s ( 1.177 %)
Final printing                  :      0.001 s (13.013 %)
Total time                      :      0.008 s

Time for energy+gradient        :     11.524 s
Time for complete geometry iter :     12.301 s

         *************************************************************
         *                GEOMETRY OPTIMIZATION CYCLE   2            *
         *************************************************************
---------------------------------
CARTESIAN COORDINATES (ANGSTROEM)
---------------------------------
  Al     0.000069   -0.002513    2.344416
  Al    -0.000314   -0.001978   -0.275210
  H      1.162225   -0.046691    1.034424
  H     -0.064486   -1.437911   -0.952103
  H     -1.161812    0.056938    1.034784
  H      0.063904    1.423174    3.042498
  H     -0.064008   -1.438722    3.020705
  H      0.063182    1.424014   -0.972705

----------------------------
CARTESIAN COORDINATES (A.U.)
----------------------------
  NO LB      ZA    FRAG     MASS         X           Y           Z
   0 Al   13.0000    0    26.982    0.000131   -0.004749    4.430304
   1 Al   13.0000    0    26.982   -0.000594   -0.003738   -0.520072
   2 H     1.0000    0     1.008    2.196287   -0.088233    1.954779
   3 H     1.0000    0     1.008   -0.121860   -2.717259   -1.799214
   4 H     1.0000    0     1.008   -2.195507    0.107598    1.955459
   5 H     1.0000    0     1.008    0.120761    2.689409    5.749489
   6 H     1.0000    0     1.008   -0.120958   -2.718791    5.708305
   7 H     1.0000    0     1.008    0.119397    2.690996   -1.838146

--------------------------------
INTERNAL COORDINATES (ANGSTROEM)
--------------------------------
 Al     0   0   0     0.000000000000     0.00000000     0.00000000
 Al     1   0   0     2.619626449342     0.00000000     0.00000000
 H      1   2   0     1.751752131385    41.60711848     0.00000000
 H      2   1   3     1.588775184884   115.20562596    90.36484025
 H      2   1   3     1.751751702941    41.60710879   180.72668251
 H      1   2   3     1.588702860101   116.05453749    89.63047570
 H      1   2   3     1.588763566348   115.20439528   269.63100438
 H      2   1   3     1.588704844938   116.05354707   270.36411857

---------------------------
INTERNAL COORDINATES (A.U.)
---------------------------
 Al     0   0   0     0.000000000000     0.00000000     0.00000000
 Al     1   0   0     4.950376562434     0.00000000     0.00000000
 H      1   2   0     3.310331782831    41.60711848     0.00000000
 H      2   1   3     3.002349987802   115.20562596    90.36484025
 H      2   1   3     3.310330973188    41.60710879   180.72668251
 H      1   2   3     3.002213313768   116.05453749    89.63047570
 H      1   2   3     3.002328031949   115.20439528   269.63100438
 H      2   1   3     3.002217064566   116.05354707   270.36411857



           ************************************************************
           *        Program running with 24 parallel MPI-processes    *
           *              working on a common directory               *
           ************************************************************
------------------------------------------------------------------------------
                   ___                                                        
                  /   \      - P O W E R E D   B Y -                         
                 /     \                                                     
                 |  |  |   _    _      __       _____    __    __             
                 |  |  |  | |  | |    /  \     |  _  \  |  |  /  |          
                  \  \/   | |  | |   /    \    | | | |  |  | /  /          
                 / \  \   | |__| |  /  /\  \   | |_| |  |  |/  /          
                |  |  |   |  __  | /  /__\  \  |    /   |      \           
                |  |  |   | |  | | |   __   |  |    \   |  |\   \          
                \     /   | |  | | |  |  |  |  | |\  \  |  | \   \       
                 \___/    |_|  |_| |__|  |__|  |_| \__\ |__|  \__/        
                                                                              
                      - O R C A' S   B I G   F R I E N D -                    
                                      &                                       
                       - I N T E G R A L  F E E D E R -                       
                                                                              
 v1 FN, 2020, v2 2021, v3 2022-2024                                           
------------------------------------------------------------------------------


----------------------
SHARK INTEGRAL PACKAGE
----------------------

Number of atoms                             ...      8
Number of basis functions                   ...    110
Number of shells                            ...     50
Maximum angular momentum                    ...      3
Integral batch strategy                     ... SHARK/LIBINT Hybrid
RI-J (if used) integral strategy            ... SPLIT-RIJ (Revised 2003 algorithm where possible)
Printlevel                                  ...      1
Contraction scheme used                     ... SEGMENTED contraction
Prescreening option                         ... SCHWARTZ
   Thresh                                   ... 2.500e-11
   Tcut                                     ... 2.500e-12
   Tpresel                                  ... 2.500e-12 
Coulomb Range Separation                    ... NOT USED
Exchange Range Separation                   ... NOT USED
Multipole approximations                    ... NOT USED
Finite Nucleus Model                        ... NOT USED
CABS basis                                  ... NOT available
Auxiliary Coulomb fitting basis             ... AVAILABLE
   # of basis functions in Aux-J            ...    168
   # of shells in Aux-J                     ...     64
   Maximum angular momentum in Aux-J        ...      4
Auxiliary J/K fitting basis                 ... NOT available
Auxiliary Correlation fitting basis         ... NOT available
Auxiliary 'external' fitting basis          ... NOT available

Checking pre-screening integrals            ... done (  0.0 sec) Dimension = 50
   => SHARK Basis and OBASIS are compatible. Storing Pre-screening
Shell pair information
Shell pair cut-off parameter TPreSel        ...   2.5e-12
Total number of shell pairs                 ...      1275
Shell pairs after pre-screening             ...      1222
Total number of primitive shell pairs       ...      4185
Primitive shell pairs kept                  ...      3236
          la=0 lb=0:    390 shell pairs
          la=1 lb=0:    420 shell pairs
          la=1 lb=1:    127 shell pairs
          la=2 lb=0:    112 shell pairs
          la=2 lb=1:     64 shell pairs
          la=2 lb=2:     10 shell pairs
          la=3 lb=0:     56 shell pairs
          la=3 lb=1:     32 shell pairs
          la=3 lb=2:      8 shell pairs
          la=3 lb=3:      3 shell pairs

Checking whether 4 symmetric matrices of dimension 110 fit in memory
:Max Core in MB      =   4096.00
 MB in use           =      4.90
 MB left             =   4091.10
 MB needed           =      0.19
 Data fit in memory  = YES
Calculating RI/J V-Matrix + Cholesky decomp.... done (  0.0 sec)
Calculating Nuclear repulsion               ... done (  0.0 sec) ENN=     77.437393248709 Eh

Diagonalization of the overlap matrix:
Smallest eigenvalue                        ... 1.847e-03
Time for diagonalization                   ...    0.004 sec
Threshold for overlap eigenvalues          ... 1.000e-07
Number of eigenvalues below threshold      ... 0
Time for construction of square roots      ...    0.001 sec
Total time needed                          ...    0.007 sec

-------------------
DFT GRID GENERATION
-------------------

General Integration Accuracy     IntAcc      ... 4.959
Radial Grid Type                 RadialGrid  ... OptM3 with GC (2021)
Angular Grid (max. ang.)         AngularGrid ... 6 (Lebedev-590)
Angular grid pruning method      GridPruning ... 4 (adaptive)
Weight generation scheme         WeightScheme... mBecke (2022)
Basis function cutoff            BFCut       ... 1.0000e-11
Integration weight cutoff        WCut        ... 1.0000e-14
Partially contracted basis set               ... off
Rotationally invariant grid construction     ... off
Angular grids for H and He will be reduced by one unit

Total number of grid points                  ...    86195
Total number of batches                      ...     1352
Average number of points per batch           ...       63
Average number of grid points per atom       ...    10774
Grids setup in   2.0 sec
Initializing property integral containers    ... done (  0.0 sec)

SHARK setup successfully completed in   2.2 seconds

Maximum memory used throughout the entire STARTUP-calculation: 20.4 MB


           ************************************************************
           *        Program running with 24 parallel MPI-processes    *
           *              working on a common directory               *
           ************************************************************
Occupation numbers will be reassigned to an Aufbau configuration
             **** ENERGY FILE WAS UPDATED (run.en.tmp) ****
Finished Guess after   0.6 sec
Maximum memory used throughout the entire GUESS-calculation: 8.5 MB


           ************************************************************
           *        Program running with 24 parallel MPI-processes    *
           *              working on a common directory               *
           ************************************************************
----------------------------------------D-I-I-S--------------------------------------------
Iteration    Energy (Eh)           Delta-E    RMSDP     MaxDP     DIISErr   Damp  Time(sec)
-------------------------------------------------------------------------------------------
               ***  Starting incremental Fock matrix formation  ***
                              *** Initializing SOSCF ***
---------------------------------------S-O-S-C-F--------------------------------------
Iteration    Energy (Eh)           Delta-E    RMSDP     MaxDP     MaxGrad    Time(sec)
--------------------------------------------------------------------------------------
    1    -488.1625882264597749     0.00e+00  4.56e-05  1.80e-04  2.19e-05     0.2
               *** Restarting incremental Fock matrix formation ***
    2    -488.1625884347079136    -2.08e-07  1.25e-05  4.91e-05  1.46e-05     0.2
    3    -488.1625884399414872    -5.23e-09  2.01e-06  9.68e-06  5.95e-06     0.1
                 **** Energy Check signals convergence ****

               *****************************************************
               *                     SUCCESS                       *
               *           SCF CONVERGED AFTER   3 CYCLES          *
               *****************************************************

             **** ENERGY FILE WAS UPDATED (run.en.tmp) ****

----------------
TOTAL SCF ENERGY
----------------

Total Energy       :       -488.16258844015670 Eh          -13283.57936 eV

Components:
Nuclear Repulsion  :         77.43739324870850 Eh            2107.17860 eV
Electronic Energy  :       -565.59998168886523 Eh          -15390.75795 eV
One Electron Energy:       -831.70646615713736 Eh          -22631.88353 eV
Two Electron Energy:        266.10648446827213 Eh            7241.12557 eV

Virial components:
Potential Energy   :       -975.20666797950867 Eh          -26536.72254 eV
Kinetic Energy     :        487.04407953935197 Eh           13253.14318 eV
Virial Ratio       :          2.00229652499187

DFT components:
N(Alpha)           :       16.000000350882 electrons
N(Beta)            :       16.000000350882 electrons
N(Total)           :       32.000000701765 electrons
E(X)               :      -38.095872852812 Eh       
E(C)               :       -1.085550452589 Eh       
E(XC)              :      -39.181423305402 Eh       

---------------
SCF CONVERGENCE
---------------

  Last Energy change         ...    5.2336e-09  Tolerance :   1.0000e-08
  Last MAX-Density change    ...    9.6836e-06  Tolerance :   1.0000e-07
  Last RMS-Density change    ...    2.0075e-06  Tolerance :   5.0000e-09
  Last DIIS Error            ...    2.0927e-04  Tolerance :   5.0000e-07
  Last Orbital Gradient      ...    5.9500e-06  Tolerance :   1.0000e-05
  Last Orbital Rotation      ...    6.5921e-06  Tolerance :   1.0000e-05


Total SCF time: 0 days 0 hours 0 min 1 sec 
Finished LeanSCF after   1.3 sec

Maximum memory used throughout the entire LEANSCF-calculation: 6.7 MB


           ************************************************************
           *        Program running with 24 parallel MPI-processes    *
           *              working on a common directory               *
           ************************************************************

------------------------------------------------------------------------------
                         ORCA PROPERTY INTEGRAL CALCULATIONS
------------------------------------------------------------------------------

GBWName                                   ... run.gbw
Number of atoms                           ...      8
Number of basis functions                 ...    110
Max core memory                           ...   4096 MB

Dipole integrals                          ... YES
Quadrupole integrals                      ...  NO
Linear momentum integrals                 ...  NO
Angular momentum integrals                ...  NO
Higher moments length integrals           ...  NO
Higher moments velocity integrals         ...  NO
Kinetic energy integrals                  ...  NO
GIAO right hand sides                     ...  NO
GIAO dipole derivative integrals          ...  NO
SOC integrals                             ...  NO
EPR diamagnetic integrals (GIAO)          ...  NO
EPR gauge integrals                       ...  NO
Field gradient integrals                  ...  NO (   0 nuclei)
Spin-dipole/Fermi contact integrals       ...  NO (   0 nuclei)
Contact density integrals                 ...  NO (   0 nuclei)
Nucleus-orbit integrals                   ...  NO (   0 nuclei)
Geometric perturbations                   ...  NO (   8 nuclei)

Choice of electric origin   ... Center of mass
Position of electric origin ... ( -0.0002, -0.0044,  1.9551) 
Choice of magnetic origin   ... GIAO
Position of magnetic origin ... (  0.0000,  0.0000,  0.0000) 

Calculating integrals                     ... Electric Dipole (Length)     done (  0.0 sec)

Property integrals calculated in   0.0 sec

Maximum memory used throughout the entire PROPINT-calculation: 8.6 MB


-------------------------------------------------------------------------------
                          DFT DISPERSION CORRECTION                            
                                                                               
                              DFTD3 V3.1  Rev 1                                
                          USING Becke-Johnson damping                          
-------------------------------------------------------------------------------
-------------------------   ----------------
Dispersion correction           -0.004446194
-------------------------   ----------------


-------------------------   --------------------
FINAL SINGLE POINT ENERGY      -488.167034634243
-------------------------   --------------------



           ************************************************************
           *        Program running with 24 parallel MPI-processes    *
           *              working on a common directory               *
           ************************************************************
------------------------------------------------------------------------------
                         ORCA SCF GRADIENT CALCULATION
------------------------------------------------------------------------------

Nuc. rep. gradient        (SHARK) ... done (  0.0 sec)
HCore & Overlap gradient  (SHARK) ... done (  0.0 sec)
Split-RIJ-J gradient      (SHARK) ... done (  0.2 sec)
XC gradient                       ... done (  0.5 sec)
Dispersion correction             ... done (  0.1 sec)

-------------------
DISPERSION GRADIENT
-------------------

   1   Al  :    0.000000036    0.000000206    0.000169501
   2   Al  :   -0.000000014    0.000000275   -0.000169502
   3   H   :    0.000058346   -0.000002168   -0.000000009
   4   H   :   -0.000003183   -0.000070965   -0.000109473
   5   H   :   -0.000058308    0.000003032    0.000000009
   6   H   :    0.000003160    0.000070293    0.000109505
   7   H   :   -0.000003157   -0.000071012    0.000109445
   8   H   :    0.000003120    0.000070339   -0.000109476

Difference to translation invariance:
           :   -0.0000000000    0.0000000000    0.0000000000

Difference to rotation invariance:
           :    0.0000000000    0.0000000000    0.0000000000

Norm of the Dispersion gradient    ...    0.0003636283
RMS gradient                       ...    0.0000742253
MAX gradient                       ...    0.0001695015

------------------
CARTESIAN GRADIENT
------------------

   1   Al  :    0.000001013    0.000025259    0.000527898
   2   Al  :    0.000001195    0.000026514   -0.000526388
   3   H   :   -0.000049234    0.000013346    0.000000445
   4   H   :   -0.000026104   -0.000576298   -0.000064969
   5   H   :    0.000050176    0.000004259   -0.000000334
   6   H   :    0.000025927    0.000540010    0.000136196
   7   H   :   -0.000027115   -0.000573739    0.000062998
   8   H   :    0.000024143    0.000540648   -0.000135846

Difference to translation invariance:
           :    0.0000000000    0.0000000000   -0.0000000000

Difference to rotation invariance:
           :    0.0000000374   -0.0000000012    0.0000002560

Norm of the Cartesian gradient     ...    0.0013620992
RMS gradient                       ...    0.0002780373
MAX gradient                       ...    0.0005762984

-------
TIMINGS
-------

Total SCF gradient time     ....        0.861 sec

Densities                   ....       0.001 sec  (  0.1%)
One electron gradient       ....       0.039 sec  (  4.5%)
RI-J Coulomb gradient       ....       0.240 sec  ( 27.8%)
XC gradient                 ....       0.469 sec  ( 54.5%)

Maximum memory used throughout the entire SCFGRAD-calculation: 27.1 MB
------------------------------------------------------------------------------
                         ORCA GEOMETRY RELAXATION STEP
------------------------------------------------------------------------------

Reading the OPT-File                    .... done
Getting information on internals        .... done
Copying old internal coords+grads       .... done
Making the new internal coordinates     .... (2022 redundants) done
Validating the new internal coordinates .... (2022 redundants) done
Calculating the B-matrix                .... done
Calculating the G,G- and P matrices     .... done
Transforming gradient to internals      .... done
Projecting the internal gradient        .... done
Number of atoms                         ....   8
Number of internal coordinates          ....  51
Current Energy                          ....  -488.167034634 Eh
Current gradient norm                   ....     0.001362099 Eh/bohr
Maximum allowed component of the step   ....  0.300
Current trust radius                    ....  0.300
Updating the Hessian (BFGS)             .... done
Forming the augmented Hessian           .... done
Diagonalizing the augmented Hessian     .... done
Last element of RFO vector              ....  0.999900177
Lowest eigenvalues of augmented Hessian:
 -0.000017279  0.029615918  0.051986472  0.081976967  0.100108301
Length of the computed step             ....  0.014130688
The final length of the internal step   ....  0.014130688
Converting the step to Cartesian space:
 Initial RMS(Int)=    0.0019786921
Transforming coordinates:
 Iter   0:  RMS(Cart)=    0.0028897319 RMS(Int)=    0.0019786324
done
Storing new coordinates                 .... done
The predicted energy change is          ....    -0.000008641
Previously predicted energy change      ....    -0.000004546
Actually observed energy change         ....    -0.000007799
Ratio of predicted to observed change   ....     1.715628902
New trust radius                        ....     0.200000000

                                .--------------------.
          ----------------------|Geometry convergence|-------------------------
          Item                value                   Tolerance       Converged
          ---------------------------------------------------------------------
          Energy change      -0.0000077992            0.0000010000      NO
          RMS gradient        0.0001826852            0.0000300000      NO
          MAX gradient        0.0005495931            0.0001000000      NO
          RMS step            0.0019786921            0.0006000000      NO
          MAX step            0.0052739389            0.0010000000      NO
          -------------------------------------------------------------------------
          ........................................................
          Max(Bonds)      0.0028      Max(Angles)    0.13
          Max(Dihed)        0.13      Max(Improp)    0.00
          ---------------------------------------------------------------------

The optimization has not yet converged - more geometry cycles are needed


    ---------------------------------------------------------------------------
                         Redundant Internal Coordinates
                            (Angstroem and degrees)

        Definition                    Value    dE/dq     Step     New-Value
    ----------------------------------------------------------------------------
     1. B(Al  1,Al  0)                2.6196  0.000440 -0.0028    2.6168   
     2. B(H   2,Al  0)                1.7518  0.000091 -0.0006    1.7511   
     3. B(H   2,Al  1)                1.7518  0.000091 -0.0006    1.7511   
     4. B(H   3,Al  1)                1.5888  0.000550 -0.0027    1.5861   
     5. B(H   4,Al  1)                1.7518  0.000091 -0.0006    1.7511   
     6. B(H   4,Al  0)                1.7518  0.000091 -0.0006    1.7511   
     7. B(H   5,Al  0)                1.5887  0.000545 -0.0026    1.5861   
     8. B(H   6,Al  0)                1.5888  0.000547 -0.0026    1.5861   
     9. B(H   7,Al  1)                1.5887  0.000546 -0.0026    1.5861   
    10. A(H   2,Al  0,H   5)          108.94 -0.000018    0.03    108.97   
    11. A(Al  1,Al  0,H   5)          116.05 -0.000054    0.02    116.07   
    12. A(H   4,Al  0,H   6)          108.79 -0.000067    0.04    108.83   
    13. A(H   4,Al  0,H   5)          108.95 -0.000016    0.03    108.98   
    14. A(Al  1,Al  0,H   4)           41.61 -0.000069    0.05     41.65   
    15. A(H   2,Al  0,H   4)           83.21 -0.000138    0.09     83.30   
    16. A(Al  1,Al  0,H   2)           41.61 -0.000069    0.04     41.65   
[...]
     10       0.000000   0.000000   0.000000   0.000000   0.000000   0.000000
     11       0.000000   0.000000   0.000000   0.000000   0.000000   0.000000
     12       0.000000   0.000000   0.000000   0.000000   0.000000   0.000000
     13       0.000000   0.000000   0.000000   0.000000   0.000000   0.000000
     14       0.000000   0.000000   0.000000   0.000000   0.000000   0.000000
     15       0.000000   0.000000   0.000000   0.000000   0.000000   0.000000
     16       0.000000   0.000000   0.000000   0.000000   0.000000   0.000000
     17       0.000000   0.000000   0.000000   0.000000   0.000000   0.000000
     18       0.000000   0.000000   0.000000   0.000000   0.000000   0.000000
     19       0.000000   0.000000   0.000000   0.000000   0.000000   0.000000
     20       0.000000   0.000000   0.000000   0.000000   0.000000   0.000000
     21       0.000000   0.000000   0.000000   0.000000   0.000000   0.000000
     22       0.000000   0.000000   0.000000   0.000000   0.000000   0.000000
     23       0.000000   0.000000   0.000000   0.000000   0.000000   0.000000
                  6          7          8          9         10         11    
      0      -0.000144  -0.000062   0.000342  -0.002518  -0.059928   0.032295
      1      -0.003265  -0.000071  -0.000017  -0.058043   0.002603  -0.001441
      2       0.000704  -0.371091   0.000008  -0.000056   0.000009  -0.000005
      3      -0.000144   0.000049  -0.000342   0.002518   0.059928   0.032295
      4      -0.003264  -0.000225   0.000017   0.058043  -0.002603  -0.001442
      5      -0.000705   0.371091  -0.000003  -0.000032  -0.000010  -0.000005
      6      -0.013267   0.139309  -0.000001   0.000001  -0.000017   0.118844
      7      -0.301935  -0.009473   0.000000   0.000000   0.000027  -0.011107
      8      -0.000060  -0.000023   0.000265  -0.000055  -0.116357  -0.000020
      9       0.008517  -0.000679  -0.498235  -0.007023  -0.492699  -0.488137
     10       0.192914  -0.016034   0.022243  -0.172706   0.021770   0.021771
     11      -0.409505   0.406200   0.000055   0.467209   0.000649   0.000103
     12      -0.013658  -0.139590   0.000002   0.000001   0.000017   0.119362
     13      -0.301913   0.003110   0.000000  -0.000000  -0.000021   0.000514
     14      -0.000062   0.000022  -0.000269  -0.000324   0.116358  -0.000018
     15       0.008675   0.000887  -0.500767   0.007247   0.489050  -0.495444
     16       0.196568   0.023189   0.022380   0.177203  -0.021614   0.022109
     17      -0.406143  -0.420713   0.000038  -0.465846  -0.000649   0.000109
     18       0.008636  -0.000689   0.498233   0.007151   0.492699  -0.488138
     19       0.192742  -0.015871  -0.022259   0.172510  -0.021780   0.021777
     20       0.409584  -0.406208  -0.000096   0.467277   0.000505   0.000034
     21       0.008800   0.001121   0.500766  -0.007399  -0.489049  -0.495447
     22       0.196398   0.023010  -0.022366  -0.177006   0.021605   0.022101
     23       0.406222   0.420724  -0.000128  -0.465916  -0.000485   0.000062
                 12         13         14         15         16         17    
      0      -0.000001   0.000455  -0.000006  -0.001305   0.030522  -0.011530
      1      -0.000122  -0.000021  -0.000259  -0.029283  -0.001361   0.000515
      2       0.033570  -0.000022   0.037474  -0.000048  -0.000005   0.000001
      3       0.000011   0.000456  -0.000017  -0.001305   0.030522   0.011530
      4       0.000108  -0.000021  -0.000244  -0.029283  -0.001361  -0.000515
      5       0.033570   0.000028  -0.037474   0.000036  -0.000005  -0.000003
      6      -0.000003   0.025647  -0.022277   0.026871  -0.701093  -0.000102
      7      -0.000055   0.612056   0.003523   0.639125   0.028048   0.000141
      8      -0.003849   0.000119   0.000004   0.000126   0.000108  -0.692456
      9       0.009803  -0.254716  -0.010203   0.003207  -0.057649   0.100716
     10       0.219951   0.011509  -0.227197   0.072350   0.002573  -0.004495
     11      -0.448615  -0.000235   0.443402  -0.201267   0.000019  -0.000021
     12       0.000002  -0.028959   0.022465   0.030091  -0.700808   0.000106
     13       0.000060  -0.611863   0.000838   0.639032   0.034438  -0.000149
     14      -0.003848  -0.000128  -0.000003   0.000132   0.000113   0.692498
     15       0.009942   0.244179   0.010424   0.003187  -0.058411  -0.100786
     16       0.223774  -0.011001   0.231746   0.072508   0.002609   0.004499
     17      -0.446044   0.000139  -0.442657  -0.197191   0.000021   0.000022
     18      -0.009893  -0.254717  -0.010346   0.003260  -0.057650  -0.100716
     19      -0.219765   0.011477  -0.227010   0.072267   0.002576   0.004494
     20      -0.448706   0.000236  -0.443494   0.201298  -0.000002   0.000009
     21      -0.010112   0.244177   0.010544   0.003253  -0.058411   0.100786
     22      -0.223585  -0.011034   0.231562   0.072426   0.002607  -0.004500
     23      -0.446132  -0.000295   0.442754   0.197222  -0.000001  -0.000012
                 18         19         20         21         22         23    
      0      -0.000000   0.000001  -0.000008   0.000005  -0.001466   0.001486
      1       0.000075   0.000069  -0.000237   0.000178  -0.032851   0.033267
      2      -0.025262  -0.010101   0.014196  -0.016234  -0.000241   0.000216
      3      -0.000007   0.000004   0.000012   0.000010   0.001465   0.001485
      4      -0.000064   0.000065   0.000230   0.000169   0.032852   0.033266
      5      -0.025262   0.010101   0.014197   0.016233  -0.000226  -0.000202
      6       0.000108  -0.706275   0.000006  -0.004817   0.000000   0.000259
      7      -0.000143   0.029869  -0.000008   0.000286   0.000000   0.005496
      8       0.705268   0.000116   0.040870  -0.000000  -0.000049   0.000003
      9       0.001240   0.000422  -0.020350  -0.020243  -0.019898  -0.020005
     10       0.027967   0.009307  -0.455298  -0.452857  -0.445210  -0.447491
     11      -0.014397  -0.001446  -0.209642  -0.214181  -0.219480  -0.217210
     12       0.000101   0.706130   0.000006   0.004823   0.000001   0.000220
     13      -0.000151  -0.033127  -0.000009  -0.000143   0.000000   0.005497
     14       0.705226  -0.000110   0.040871  -0.000002  -0.000056  -0.000000
     15       0.001249  -0.000430  -0.020068   0.020046   0.020040  -0.020058
     16       0.027966  -0.009468  -0.448717   0.448172   0.448106  -0.448404
     17      -0.014623   0.001685  -0.211423   0.216917   0.225781  -0.222672
     18      -0.001249   0.000424   0.020300  -0.020194   0.019843  -0.019952
     19      -0.027961   0.009306   0.455376  -0.453006   0.445248  -0.447582
     20      -0.014408   0.001450  -0.209453   0.214026  -0.219274   0.217029
     21      -0.001250  -0.000430   0.019995   0.019970  -0.019961  -0.019978
     22      -0.027961  -0.009467   0.448849   0.448270  -0.448184  -0.448462
     23      -0.014634  -0.001689  -0.211262  -0.216740   0.225592   0.222472


-----------
IR SPECTRUM
-----------

 Mode   freq       eps      Int      T**2         TX        TY        TZ
       cm**-1   L/(mol*cm) km/mol    a.u.
----------------------------------------------------------------------------
  6:    192.82   0.002172   10.98  0.003515  (-0.002622 -0.059230 -0.000012)
  7:    364.91   0.000000    0.00  0.000000  (-0.000020 -0.000433 -0.000000)
  8:    405.76   0.000000    0.00  0.000000  ( 0.000000  0.000000  0.000027)
  9:    452.46   0.000000    0.00  0.000000  ( 0.000002  0.000000 -0.000466)
 10:    466.22   0.000000    0.00  0.000000  (-0.000000  0.000002 -0.000004)
 11:    601.84   0.043712  220.90  0.022665  ( 0.150400 -0.006705 -0.000023)
 12:    679.19   0.107303  542.27  0.049302  ( 0.000033 -0.000047  0.222041)
 13:    711.66   0.000008    0.04  0.000004  ( 0.001904 -0.000089  0.000022)
 14:    717.89   0.000003    0.02  0.000001  (-0.000053 -0.001173 -0.000001)
 15:    784.61   0.031483  159.10  0.012522  (-0.004976 -0.111789 -0.000023)
 16:   1271.01   0.050986  257.66  0.012518  ( 0.111774 -0.004985 -0.000017)
 17:   1368.03   0.000000    0.00  0.000000  (-0.000000  0.000001 -0.000007)
 18:   1425.56   0.180073  910.01  0.039419  (-0.000030  0.000041 -0.198542)
 19:   1480.03   0.000000    0.00  0.000000  ( 0.000012  0.000268 -0.000001)
 20:   1896.65   0.024794  125.30  0.004079  ( 0.000009 -0.000015  0.063870)
 21:   1901.26   0.000002    0.01  0.000000  ( 0.000023  0.000519 -0.000002)
 22:   1914.42   0.000005    0.02  0.000001  (-0.000001  0.000002 -0.000861)
 23:   1922.06   0.069008  348.74  0.011204  ( 0.004720  0.105744  0.000023)

* The epsilon (eps) is given for a Dirac delta lineshape.
** The dipole moment derivative (T) already includes vibrational overlap.

The first frequency considered to be a vibration is 6
The total number of vibrations considered is 18


--------------------------
THERMOCHEMISTRY AT 298.15K
--------------------------

Temperature         ...   298.15 K
Pressure            ...     1.00 atm
Total Mass          ...    60.01 AMU
Quasi RRHO          ...     True
Cut-Off Frequency   ...     1.00 cm^-1

Throughout the following assumptions are being made:
  (1) The electronic state is orbitally nondegenerate
  (2) There are no thermally accessible electronically excited states
  (3) Hindered rotations indicated by low frequency modes are not
      treated as such but are treated as vibrations and this may
      cause some error
  (4) All equations used are the standard statistical mechanics
      equations for an ideal gas
  (5) All vibrations are strictly harmonic

freq.     192.82  E(vib)   ...       0.36 
freq.     364.91  E(vib)   ...       0.22 
freq.     405.76  E(vib)   ...       0.19 
freq.     452.46  E(vib)   ...       0.16 
freq.     466.22  E(vib)   ...       0.16 
freq.     601.84  E(vib)   ...       0.10 
freq.     679.19  E(vib)   ...       0.08 
freq.     711.66  E(vib)   ...       0.07 
freq.     717.89  E(vib)   ...       0.07 
freq.     784.61  E(vib)   ...       0.05 
freq.    1271.01  E(vib)   ...       0.01 
freq.    1368.03  E(vib)   ...       0.01 
freq.    1425.56  E(vib)   ...       0.00 
freq.    1480.03  E(vib)   ...       0.00 
freq.    1896.65  E(vib)   ...       0.00 
freq.    1901.26  E(vib)   ...       0.00 
freq.    1914.42  E(vib)   ...       0.00 
freq.    1922.06  E(vib)   ...       0.00 

------------
INNER ENERGY
------------

The inner energy is: U= E(el) + E(ZPE) + E(vib) + E(rot) + E(trans)
    E(el)   - is the total energy from the electronic structure calculation
              = E(kin-el) + E(nuc-el) + E(el-el) + E(nuc-nuc)
    E(ZPE)  - the the zero temperature vibrational energy from the frequency calculation
    E(vib)  - the the finite temperature correction to E(ZPE) due to population
              of excited vibrational states
    E(rot)  - is the rotational thermal energy
    E(trans)- is the translational thermal energy

Summary of contributions to the inner energy U:
Electronic energy                ...   -488.16704655 Eh
Zero point energy                ...      0.04227454 Eh      26.53 kcal/mol
Thermal vibrational correction   ...      0.00234667 Eh       1.47 kcal/mol
Thermal rotational correction    ...      0.00141627 Eh       0.89 kcal/mol
Thermal translational correction ...      0.00141627 Eh       0.89 kcal/mol
-----------------------------------------------------------------------
Total thermal energy                   -488.11959279 Eh


Summary of corrections to the electronic energy:
(perhaps to be used in another calculation)
Total thermal correction                  0.00517922 Eh       3.25 kcal/mol
Non-thermal (ZPE) correction              0.04227454 Eh      26.53 kcal/mol
-----------------------------------------------------------------------
Total correction                          0.04745375 Eh      29.78 kcal/mol


--------
ENTHALPY
--------

The enthalpy is H = U + kB*T
                kB is Boltzmann's constant
Total thermal energy              ...   -488.11959279 Eh 
Thermal Enthalpy correction       ...      0.00094421 Eh       0.59 kcal/mol
-----------------------------------------------------------------------
Total Enthalpy                    ...   -488.11864859 Eh


Note: Rotational entropy computed according to Herzberg 
Infrared and Raman Spectra, Chapter V,1, Van Nostrand Reinhold, 1945 
Point Group:  C2v, Symmetry Number:   2  
Rotational constants in cm-1:     1.537638     0.151931     0.144763 

Vibrational entropy computed according to the QRRHO of S. Grimme
Chem.Eur.J. 2012 18 9955 using a reference frequency of 100.0 cm-1


-------
ENTROPY
-------

The entropy contributions are T*S = T*(S(el)+S(vib)+S(rot)+S(trans))
     S(el)   - electronic entropy
     S(vib)  - vibrational entropy
     S(rot)  - rotational entropy
     S(trans)- translational entropy
The entropies will be listed as multiplied by the temperature to get
units of energy

Electronic entropy                ...      0.00000000 Eh      0.00 kcal/mol
Vibrational entropy               ...      0.00354154 Eh      2.22 kcal/mol
Rotational entropy                ...      0.01045520 Eh      6.56 kcal/mol
Translational entropy             ...      0.01814806 Eh     11.39 kcal/mol
-----------------------------------------------------------------------
Final entropy term                ...      0.03214480 Eh     20.17 kcal/mol

In case the symmetry of your molecule has not been determined correctly
or in case you have a reason to use a different symmetry number we print 
out the resulting rotational entropy values for sn=1,12:

 non-linear molecules -----------------------------------
|  sn= 1 | S(rot)=       0.01110966 Eh      6.97 kcal/mol|
|  sn= 2 | S(rot)=       0.01045520 Eh      6.56 kcal/mol|
|  sn= 3 | S(rot)=       0.01007237 Eh      6.32 kcal/mol|
|  sn= 4 | S(rot)=       0.00980074 Eh      6.15 kcal/mol|
|  sn= 5 | S(rot)=       0.00959006 Eh      6.02 kcal/mol|
|  sn= 6 | S(rot)=       0.00941791 Eh      5.91 kcal/mol|
|  sn= 7 | S(rot)=       0.00927237 Eh      5.82 kcal/mol|
|  sn= 8 | S(rot)=       0.00914629 Eh      5.74 kcal/mol|
|  sn= 9 | S(rot)=       0.00903508 Eh      5.67 kcal/mol|
|  sn=10 | S(rot)=       0.00893560 Eh      5.61 kcal/mol|
|  sn=11 | S(rot)=       0.00884561 Eh      5.55 kcal/mol|
|  sn=12 | S(rot)=       0.00876346 Eh      5.50 kcal/mol|
 linear molecules ---------------------------------------
|  Dinfh | S(rot)=       0.00715058 Eh      4.49 kcal/mol|
|  Cinfv | S(rot)=       0.00780504 Eh      4.90 kcal/mol|
 --------------------------------------------------------


-------------------
GIBBS FREE ENERGY
-------------------

The Gibbs free energy is G = H - T*S

Total enthalpy                    ...   -488.11864859 Eh 
Total entropy correction          ...     -0.03214480 Eh    -20.17 kcal/mol
-----------------------------------------------------------------------
Final Gibbs free energy         ...   -488.15079338 Eh

For completeness - the Gibbs free energy minus the electronic energy
G-E(el)                           ...      0.01625316 Eh     10.20 kcal/mol


Maximum memory used throughout the entire PROP-calculation: 27.2 MB

--------------------------------
SUGGESTED CITATIONS FOR THIS RUN
--------------------------------

Below you find a list of papers that are relevant to this ORCA run
We neither can nor want to force you to cite these papers, but we appreciate if you do
You receive ORCA, which is the product of decades of hard work by many enthusiastic individuals, for free
The only thing we kindly ask in return is that you cite our papers,
We deeply appreciate it, if you show your appreciation for ORCA by not just citing the generic ORCA reference.

Please note that relegating all ORCA citations to the supporting information does *not* help us.
SI sections are not indexed - citations you put there will not count into any citation statistics
But we need these citations in order to attract the funding resources that allow us to do what we are doing

Therefore, if you are a happy ORCA user, please consider citing a few of the papers listed below in the main body of your paper

In addition to the list printed below, the program has created the file run.bibtex that contains the list in bibtex format
You can import this file easily into all common literature databanks and citation aid programs


List of essential papers. We consider these as the minimum necessary citations

  1. Neese, F.
     Software update: the ORCA program system, version 6.0
     WIRES Comput. Molec. Sci. 2025 15(1), e70019
     doi.org/10.1002/wcms.7019

List of papers to cite with high priority. The work reported in these papers was absolutely
necessary for this run to complete.
Our perspective: the developers of density functionals and basis sets usually get cited in chemistry papers
Good! But without the algorithms to do something with them, the functionals or basis sets would not do anything.
Hence, in our opinion, the algorithm design and method developments papers are equally worthy of getting cited

  1. Neese, F.
     An improvement of the resolution of the identity approximation for the formation of the Coulomb matrix
     J. Comp. Chem. 2003 24(14), 1740-1747
     doi.org/10.1002/jcc.10318
  2. Grimme, S.; Antony, J.; Ehrlich, S.; Krieg, H.
     A consistent and accurate ab initio parametrization of density functional dispersion correction (DFT-D) for the 94 elements H-Pu
     J. Chem. Phys. 2010 132 , 154104
     doi.org/10.1063/1.3382344
  3. Grimme, S.; Ehrlich, S.; Goerigk, L.
     Effect of the damping function in dispersion corrected density functional theory
     J. Comput. Chem. 2011 32(7), 1456-1465
     doi.org/10.1002/jcc.21759
  4. Bykov, D.; Petrenko, T.; Izsak, R.; Kossmann, S.; Becker, U.; Valeev, E.; Neese, F.
     Efficient implementation of the analytic second derivatives of Hartree-Fock and hybrid DFT energies: a detailed analysis of different approximations
     Molec. Phys. 2015 113 , 1961-1977
     doi.org/10.1080/00268976.2015.1025114
  5. Neese, F.
     The SHARK Integral Generation and Digestion System
     J. Comp. Chem. 2022 44(3), 381
     doi.org/10.1002/jcc.26942

List of suggested additional citations. These are papers that are important in the 'surrounding' of 
of this run, or papers that preceded the highly important papers. If you like your results we are grateful for a citation.

  1. Neese, F.
     The ORCA program system
     WIRES Comput. Molec. Sci. 2012 2(1), 73-78
     doi.org/10.1002/wcms.81
  2. Neese, F.
     Software update: the ORCA program system, version 4.0
     WIRES Comput. Molec. Sci. 2018 8(1), 1-6
     doi.org/10.1002/wcms.1327
  3. Neese, F.; Wennmohs, F.; Becker, U.; Riplinger, C.
     The ORCA quantum chemistry program package
     J. Chem. Phys. 2020 152(22), 224108
     doi.org/10.1063/5.0004608
  4. Neese, F.
     Software update: The ORCA program system—Version 5.0
     WIRES Comput. Molec. Sci. 2022 12(1), e1606
     doi.org/10.1002/wcms.1606

List of optional additional citations

  1. Neese, F.
     Approximate second-order SCF convergence for spin unrestricted wavefunctions
     Chem. Phys. Lett. 2000 325(1-3), 93-98
     doi.org/10.1016/s0009-2614(00)00662-x

Timings for individual modules:

Sum of individual times          ...       62.446 sec (=   1.041 min)
Startup calculation              ...       19.412 sec (=   0.324 min)  31.1 %
SCF iterations                   ...       16.670 sec (=   0.278 min)  26.7 %
Property integrals               ...        9.999 sec (=   0.167 min)  16.0 %
SCF Response                     ...        2.754 sec (=   0.046 min)   4.4 %
Property calculations            ...        4.827 sec (=   0.080 min)   7.7 %
SCF Gradient evaluation          ...        8.685 sec (=   0.145 min)  13.9 %
Geometry relaxation              ...        0.099 sec (=   0.002 min)   0.2 %
                             ****ORCA TERMINATED NORMALLY****
TOTAL RUN TIME: 0 days 0 hours 1 minutes 8 seconds 26 msec
