
                                 *****************
                                 * O   R   C   A *
                                 *****************

                                            #,                                       
                                            ###                                      
                                            ####                                     
                                            #####                                    
                                            ######                                   
                                           ########,                                 
                                     ,,################,,,,,                         
                               ,,#################################,,                 
                          ,,##########################################,,             
                       ,#########################################, ''#####,          
                    ,#############################################,,   '####,        
                  ,##################################################,,,,####,       
                ,###########''''           ''''###############################       
              ,#####''   ,,,,##########,,,,          '''####'''          '####       
            ,##' ,,,,###########################,,,                        '##       
           ' ,,###''''                  '''############,,,                           
         ,,##''                                '''############,,,,        ,,,,,,###''
      ,#''                                            '''#######################'''  
     '                                                          ''''####''''         
             ,#######,   #######,   ,#######,      ##                                
            ,#'     '#,  ##    ##  ,#'     '#,    #''#        ,####,    ,#,          
            ##       ##  ##   ,#'  ##            #'  '#       #'       ,# #          
            ##       ##  #######   ##           ,######,      #####,      #          
            '#,     ,#'  ##    ##  '#,     ,#' ,#      #,     #,   #      #          
             '#######'   ##     ##  '#######'  #'      '#     '####' #    #          



                #########################################################
                #                        -***-                          #
                #          Department of theory and spectroscopy        #
                #                                                       #
                #                      Frank Neese                      #
                #                                                       #
                #     Directorship, Architecture, Infrastructure        #
                #                    SHARK, DRIVERS                     #
                #        Core code/Algorithms in most modules           #
                #                                                       #
                #        Max Planck Institute fuer Kohlenforschung      #
                #                Kaiser Wilhelm Platz 1                 #
                #                 D-45470 Muelheim/Ruhr                 #
                #                      Germany                          #
                #                                                       #
                #                  All rights reserved                  #
                #                        -***-                          #
                #########################################################


                         Program Version 6.1.0  -  RELEASE   -
                                (GIT: $679e74b$)
                          ($2025-06-10 18:02:51 +0200$)


 With contributions from (in alphabetic order):
[Max-Planck-Institut fuer Kohlenforschung]                               
  Daniel Aravena         : Magnetic Suceptibility                        
  Michael Atanasov       : Ab Initio Ligand Field Theory (pilot matlab implementation)
  Alexander A. Auer      : GIAO ZORA, VPT2 properties, NMR spectrum      
  Ute Becker             : All parallelization in ORCA, NUMFREQ, NUMCALC 
  Giovanni Bistoni       : ED, misc. LED, open-shell LED, HFLD           
  Dmytro Bykov           : pre 5.0 version of the SCF Hessian            
  Marcos Casanova-Páez   : Triplet and SCS-CIS(D). UHF-(DLPNO)-IP/EA/STEOM-CCSD. UHF-CVS-IP/STEOM-CCSD   
  Vijay G. Chilkuri      : MRCI spin determinant printing, contributions to CSF-ICE 
  Pauline Colinet        : FMM embedding                                 
  Dipayan Datta          : RHF DLPNO-CCSD density                        
  Achintya Kumar Dutta   : EOM-CC, STEOM-CC                              
  Nicolas Foglia         : Exact transition moments, OPA infrastructure, MCD improvements    
  Dmitry Ganyushin       : Spin-Orbit,Spin-Spin,Magnetic field MRCI      
  Miquel Garcia-Rates    : C-PCM and meta-GGA Hessian, CCSD/C-PCM, Gaussian charge scheme 
  Tiago L. C. Gouveia    : GS-ROHF, GS-ROCIS                             
  Yang Guo               : DLPNO-NEVPT2, F12-NEVPT2, CIM, IAO-localization        
  Andreas Hansen         : Spin unrestricted coupled pair/coupled cluster methods 
  Ingolf Harden          : AUTO-CI MPn and infrastructure                
  Benjamin Helmich-Paris : MC-RPA, TRAH-(SCF,CASSCF), AVAS, COSX integrals, SCF dyn. polar., MC-PDFT, srDFT 
  Lee Huntington         : MR-EOM, pCC                                   
  Robert Izsak           : Overlap fitted RIJCOSX, COSX-SCS-MP3, EOM     
  Riya Kayal             : Wick's Theorem for AUTO-CI, AUTO-CI UHF-CCSDT 
  Emily Kempfer          : AUTO-CI RHF CISDT and CCSDT, approximate NEVPT4
  Christian Kollmar      : KDIIS, OOCD, Brueckner-CCSD(T), CCSD density, CASPT2, CASPT2-K, improved NEVPT2 
  Axel Koslowski         : Symmetry handling                             
  Simone Kossmann        : meta-GGA functionals, TD-DFT gradient, OOMP2, (MP2 Hessian; deprecated post 5.0) 
  Lucas Lang             : DCDCAS, Hyperfine gauge corrections, ICE-SOC+SSC
  Marvin Lechner         : AUTO-CI (C++ implementation), FIC-MRCC        
  Spencer Leger          : CASSCF response                               
  Dagmar Lenk            : GEPOL surface, SMD, ORCA-2-JSON               
  Dimitrios Liakos       : Extrapolation schemes; Compound Job, Property file
  Dimitrios Manganas     : Further ROCIS development; embedding schemes. LFT, Crystal Embedding 
  Dimitrios Pantazis     : SARC Basis sets                               
  Anastasios Papadopoulos: AUTO-CI, single reference methods and gradients 
  Taras Petrenko         : pre 6.0 DFT Hessian and TD-DFT gradient,  ECA, NRVS 
  Petra Pikulova         : Analytic Raman intensities                    
  Peter Pinski           : DLPNO-MP2, DLPNO-MP2 Gradient                 
  Shashank Vittal Rao    : ES-AILFT, MagRelax                            
  Christoph Reimann      : Effective Core Potentials                     
  Marius Retegan         : Local ZFS, SOC                                
  Christoph Riplinger    : Optimizer, TS searches, QM/MM, DLPNO-CCSD(T), (RO)-DLPNO pert. Triples 
  Michael Roemelt        : Original ROCIS implementation, recursive CI coupling coefficients
  Masaaki Saitow         : Open-shell DLPNO-CCSD energy and density      
  Barbara Sandhoefer     : DKH picture change effects                    
  Yorick L. A. Schmerwitz: GMF and freeze-and-release deltaSCF, NEB S-IDPP initial path                    
  Kantharuban Sivalingam : CASSCF convergence/infrastructure, NEVPT2, NEVPT3, NEVPT4(SD), FIC-MRCI and CEPA variants
  Bernardo de Souza      : ESD, SOC TD-DFT                               
  Georgi L. Stoychev     : AutoAux, RI-MP2 NMR, DLPNO-MP2 response, X2C  
  Van Anh Tran           : RI-MP2 g-tensors                              
  Willem Van den Heuvel  : Paramagnetic NMR                              
  Zikuan Wang            : NOTCH, Electric field optimization            
  Frank Wennmohs         : Technical directorship and infrastructure     
  Hang Xu                : AUTO-CI-Response properties                   
                                                                         
[FACCTs GmbH]                                                            
  Markus Bursch, Nicolas Foglia, Miquel Garcia-Rates, Ingolf Harden, Hagen Neugebauer, Anastasios Papadopoulos, 
  Christoph Riplinger, Bernardo de Souza, Georgi L. Stoychev                                                    
                                                                 
  APM, various basis sets, CI-OPT, improved COSX, DLPNO-Multilevel,           
  DOCKER, DRACO, updates on ESD, Fragmentator, GOAT, IRC, LR-CPCM, L-BFGS, MBIS, meta-GGA TD-DFT gradient, ML-optimized integration grids, 
  MM, NACMEs, nearIR, NEB, NEB-TS, NL-DFT gradient (VV10), 2- and 3-layer-ONIOM, interface openCOSMO-RS, QMMM,   
  Crystal-QMMM, RESP, rigid body optimization, SF, symmetry and pop. for TD-DFT, various functionals, SOLVATOR                                   
                                                                         
[Other institutions]                                                     
  V. Asgeirsson          : NEB                                           
  Christoph Bannwarth    : sTDA-DFT, sTD-DFT, PBEh-3c, B97-3c, D3        
  Giovanni Bistoni       : ETS/NOCV, ADLD/ADEX, COVALED                  
  Martin Brehm           : Molecular dynamics                            
  Ronald Cardenas        : ETS/NOCV                                      
  Martina Colucci        : COVALED                                       
  Sebastian Ehlert       : rSCAN, r2SCAN, r2SCAN-3c, D4, dhf basis sets  
  Marvin Friede          : D4 for Fr, Ra, Ac-Lr                          
  Lars Goerigk           : TD-DFT with DH, B97 family of functionals     
  Stefan Grimme          : VdW corrections, initial TS optimization, DFT functionals, gCP, sTDA/sTD-DF 
  Waldemar Hujo          : DFT-NL                                        
  H. Jonsson             : NEB                                           
  Holger Kruse           : gCP                                           
  Marcel Mueller         : wB97X-3c, vDZP basis set                      
  Hagen Neugebauer       : wr2SCAN, Native XTB                           
  Gianluca Regni         : ADLD/ADEX                                     
  Tobias Risthaus        : pre 6.0 range-separated hybrid DFT and stability analysis
  Lukas Wittmann         : regularized MP2, r2SCAN double-hybrids, wr2SCAN        
                                                                         
We gratefully acknowledge several colleagues who have allowed us to      
interface, adapt or use parts of their codes:                            
  Ed Valeev, F. Pavosevic, A. Kumar             : LibInt (2-el integral package), F12 methods 
  Garnet Chan, S. Sharma, J. Yang, R. Olivares  : DMRG                   
  Ulf Ekstrom                                   : XCFun DFT Library      
  Mihaly Kallay                                 : mrcc  (arbitrary order and MRCC methods)
  Frank Weinhold                                : gennbo (NPA and NBO analysis)           
  Simon Mueller                                 : openCOSMO-RS                            
  Christopher J. Cramer and Donald G. Truhlar   : smd solvation model                     
  S Lehtola, MJT Oliveira, MAL Marques          : LibXC Library                           
  Liviu Ungur et al                             : ANISO software                          


 Your calculation uses the libint2 library for the computation of 2-el integrals
 For citations please refer to: http://libint.valeyev.net

 Your ORCA version has been built with support for libXC version: 7.0.0
 For citations please refer to: https://libxc.gitlab.io

 This ORCA versions uses:
   CBLAS   interface :  Fast vector & matrix operations
   LAPACKE interface :  Fast linear algebra routines
   SCALAPACK package :  Parallel linear algebra routines
   Shared memory     :  Shared parallel matrices
   BLAS/LAPACK       :  OpenBLAS 0.3.29  USE64BITINT DYNAMIC_ARCH NO_AFFINITY Bulldozer SINGLE_THREADED
        Core in use  :  Bulldozer
   Copyright (c) 2011-2014, The OpenBLAS Project


  ***********************************
  * Starting time: Wed Aug 27 18:18:01 2025
  * Host name:     chromium05
  * Process ID:    547190
  * Working dir.:  /local/scratch/mehlhorn/62297
  ***********************************



***************************************
The coordinates will be read from file: start.xyz
***************************************


Your calculation utilizes the atom-pairwise dispersion correction
with the Becke-Johnson damping scheme (D3BJ)


Warning: RI is on but no J-basis has been assigned. Assigning Def2/J (nothing to worry about!)
================================================================================

----- Orbital basis set information -----
Your calculation utilizes the basis: def2-TZVP
   F. Weigend and R. Ahlrichs, Phys. Chem. Chem. Phys. 7, 3297 (2005).

----- AuxJ basis set information -----
Your calculation utilizes the auxiliary basis: def2/J
   H-Rn: F. Weigend, Phys. Chem. Chem. Phys. 8, 1057 (2006).
   Fr-Lr: K. Eichkorn, F. Weigend, O. Treutler, R. Ahlrichs; Theor. Chem. Acc. 97, 119 (1997).

================================================================================
                                        WARNINGS
                       Please study these warnings very carefully!
================================================================================


WARNING: Geometry Optimization
  ===> : Switching off AutoStart
         For restart on a previous wavefunction, please use MOREAD

================================================================================
                                       INPUT FILE
================================================================================
NAME = run.inp
|  1> # Geometry optimization for (AlH3)n cluster
|  2> 
|  3> %pal nprocs 24  end
|  4> 
|  5> %geom MaxIter 500 end
|  6> 
|  7> %cpcm
|  8> 	epsilon 1.95778548766667
|  9> end
| 10> 
| 11> ! PBE def2-TZVP
| 12> ! RKS	# closed shell for AlH3
| 13> ! D3    #  dispersion correction
| 14> ! Freq 	# Frequency analysis to check the stabiltity of the structures
| 15> 
| 16> ! NoPop # population analysis not necessary	
| 17> 
| 18> ! DEFGRID3
| 19> ! TightSCF
| 20> ! TightOpt
| 21> 
| 22> ! SmallPrint
| 23> 
| 24> 
| 25> * xyzFile 0 1 start.xyz # only maingroup elements H and Al so there should be no net spin
| 26> 
| 27>                          ****END OF INPUT****
================================================================================

                       *****************************
                       * Geometry Optimization Run *
                       *****************************

Geometry optimization settings:
Update method            Update   .... BFGS
Choice of coordinates    CoordSys .... (2022) Redundant Internals
Initial Hessian          InHess   .... Almloef's Model
Max. no of cycles        MaxIter  .... 500

Convergence Tolerances:
Energy Change            TolE     ....  1.0000e-06 Eh
Max. Gradient            TolMAXG  ....  1.0000e-04 Eh/bohr
RMS Gradient             TolRMSG  ....  3.0000e-05 Eh/bohr
Max. Displacement        TolMAXD  ....  1.0000e-03 bohr
RMS Displacement         TolRMSD  ....  6.0000e-04 bohr
Strict Convergence                .... False

------------------------------------------------------------------------------
                        ORCA OPTIMIZATION COORDINATE SETUP
------------------------------------------------------------------------------

The optimization will be done in redundant internal coordinates (2022)
Making redundant internal coordinates   ...  (2022 redundants) done
Evaluating the initial hessian          ...  (Almloef) done
Evaluating the coordinates              ...  done
Calculating the B-matrix                .... done
Calculating the G-matrix                .... done
The number of degrees of freedom        ....  156

    -----------------------------------------------------------------
                    Redundant Internal Coordinates


    -----------------------------------------------------------------
         Definition                    Initial Value    Approx d2E/dq
    -----------------------------------------------------------------
      1. B(Al  1,Al  0)                  3.0930         0.058865   
      2. B(H   2,Al  1)                  1.7189         0.250389   
      3. B(H   3,Al  1)                  1.5892         0.403253   
      4. B(H   4,Al  1)                  1.7080         0.260611   
      5. B(H   4,Al  0)                  1.7156         0.253417   
      6. B(H   5,Al  0)                  1.5891         0.403416   
      7. B(H   6,Al  0)                  1.7011         0.267358   
      8. B(H   7,Al  1)                  1.5865         0.407299   
      9. B(Al  8,H   2)                  1.7177         0.251510   
     10. B(Al  8,Al  1)                  3.1244         0.052455   
     11. B(H   9,Al  8)                  1.7099         0.258834   
     12. B(H  10,Al  8)                  1.5862         0.407761   
     13. B(H  11,Al  0)                  1.5858         0.408289   
     14. B(Al 12,H   6)                  1.6991         0.269250   
     15. B(Al 12,Al  0)                  3.3570         0.022322   
     16. B(Al 12,H   9)                  1.7177         0.251547   
     17. B(Al 12,Al  8)                  3.0616         0.066072   
     18. B(H  13,Al 12)                  1.5873         0.406081   
     19. B(H  14,Al 12)                  1.5877         0.405424   
     20. B(H  15,Al  8)                  1.5895         0.402736   
     21. A(H   5,Al  0,H  11)          128.2284         0.386215   
     22. A(Al  1,Al  0,Al 12)           79.5573         0.237173   
     23. A(Al  1,Al  0,H  11)          128.2646         0.323514   
     24. A(H   4,Al  0,Al 12)           93.3969         0.258033   
     25. A(H  11,Al  0,Al 12)          103.4521         0.277301   
     26. A(H   4,Al  0,H  11)          104.5187         0.356528   
     27. A(Al  1,Al  0,H   4)           25.3279         0.299517   
     28. A(Al  1,Al  0,H   5)           93.8595         0.322878   
     29. A(H   4,Al  0,H   5)          107.5836         0.355802   
     30. A(H   4,Al  0,H   6)           98.7965         0.332081   
     31. A(H   5,Al  0,H   6)          105.0287         0.359056   
     32. A(H   6,Al  0,H  11)          108.9093         0.359791   
     33. A(H   5,Al  0,Al 12)          113.8527         0.276790   
     34. A(H   6,Al  0,Al 12)            9.1420         0.260094   
     35. A(Al  1,Al  0,H   6)           82.0739         0.302084   
     36. A(Al  0,Al  1,H   7)          124.4411         0.323385   
     37. A(H   3,Al  1,H   4)          109.0754         0.357473   
     38. A(H   2,Al  1,H   3)          107.9570         0.355053   
     39. A(H   2,Al  1,H   7)          105.2715         0.355655   
     40. A(H   3,Al  1,Al  8)           97.6060         0.316833   
     41. A(Al  0,Al  1,H   2)          103.9430         0.298945   
     42. A(H   7,Al  1,Al  8)          126.4201         0.317348   
     43. A(H   2,Al  1,H   4)           94.7425         0.330023   
     44. A(Al  0,Al  1,H   4)           25.4490         0.300855   
     45. A(Al  0,Al  1,H   3)           83.6406         0.322856   
     46. A(H   4,Al  1,Al  8)           77.0252         0.295398   
     47. A(H   2,Al  1,Al  8)           24.6025         0.293537   
     48. A(Al  0,Al  1,Al  8)           80.7125         0.268785   
     49. A(H   4,Al  1,H   7)          106.1041         0.358081   
     50. A(H   3,Al  1,H   7)          128.4883         0.386025   
     51. A(Al  1,H   2,Al  8)          130.7765         0.328091   
     52. A(Al  0,H   4,Al  1)          129.2231         0.330679   
     53. A(Al  0,H   6,Al 12)          161.7056         0.335439   
     54. A(H   9,Al  8,H  15)          108.7071         0.356980   
     55. A(H   2,Al  8,H  15)          108.1624         0.355245   
     56. A(Al  1,Al  8,H  15)           94.0643         0.316766   
     57. A(H   2,Al  8,H  10)          105.4267         0.355993   
     58. A(Al  1,Al  8,H  10)          128.5986         0.317407   
     59. A(H   2,Al  8,H   9)           94.2117         0.329893   
     60. A(Al  1,Al  8,H   9)           79.6855         0.295079   
     61. A(Al  1,Al  8,H   2)           24.6210         0.293744   
     62. A(H   9,Al  8,H  10)          106.4128         0.357733   
     63. A(H  10,Al  8,Al 12)          124.2253         0.329655   
     64. A(H   9,Al  8,Al 12)           26.7838         0.306130   
     65. A(H   2,Al  8,Al 12)          105.5142         0.304723   
     66. A(Al  1,Al  8,Al 12)           83.8092         0.273547   
     67. A(H  10,Al  8,H  15)          128.5412         0.386015   
     68. A(Al 12,Al  8,H  15)           82.0545         0.328980   
     69. A(Al  8,H   9,Al 12)          126.5631         0.329901   
     70. A(H   9,Al 12,H  14)          108.5449         0.355655   
     71. A(Al  8,Al 12,H  14)           90.6701         0.329342   
     72. A(H   6,Al 12,H  14)          108.7094         0.359791   
     73. A(Al  0,Al 12,H  14)          103.9006         0.277001   
     74. A(H   9,Al 12,H  13)          103.6759         0.355752   
     75. A(Al  8,Al 12,H  13)          129.9427         0.329430   
     76. A(H   6,Al 12,H  13)          105.7461         0.359891   
     77. A(Al  0,Al 12,H  13)          114.3149         0.277070   
     78. A(H  13,Al 12,H  14)          128.0692         0.386184   
     79. A(Al  8,Al 12,H   9)           26.6530         0.304731   
     80. A(H   6,Al 12,H   9)           98.0111         0.332062   
     81. A(Al  0,Al 12,H   9)           92.4840         0.257750   
     82. A(H   6,Al 12,Al  8)           85.4751         0.308077   
     83. A(Al  0,Al 12,Al  8)           77.5452         0.241098   
     84. A(Al  0,Al 12,H   6)            9.1524         0.260368   
     85. D(H   2,Al  1,Al  0,Al 12)    -50.8943         0.010000   
     86. D(H   2,Al  1,Al  0,H   6)    -59.7982         0.010000   
     87. D(H   3,Al  1,Al  0,Al 12)     56.0810         0.010000   
     88. D(H   3,Al  1,Al  0,H   5)    -57.4784         0.010000   
     89. D(H   2,Al  1,Al  0,H   4)     71.1278         0.010000   
     90. D(H   3,Al  1,Al  0,H   4)    178.1031         0.010000   
     91. D(H   3,Al  1,Al  0,H   6)     47.1771         0.010000   
     92. D(H   2,Al  1,Al  0,H   5)   -164.4536         0.010000   
     93. D(H   2,Al  1,Al  0,H  11)     48.0751         0.010000   
     94. D(H   3,Al  1,Al  0,H  11)    155.0504         0.010000   
     95. D(Al  8,H   2,Al  1,H   7)    151.8821         0.010000   
     96. D(Al  8,H   2,Al  1,H   3)    -68.0632         0.010000   
     97. D(Al  8,H   2,Al  1,Al  0)     19.6725         0.010000   
     98. D(Al  8,H   2,Al  1,H   4)     43.7520         0.010000   
     99. D(Al  0,H   4,Al  1,Al  8)    -95.6669         0.010000   
    100. D(Al  1,H   4,Al  0,H   5)    -59.7005         0.010000   
    101. D(Al  0,H   4,Al  1,H   3)     -1.9948         0.010000   
    102. D(Al  0,H   4,Al  1,H   2)   -112.8510         0.010000   
    103. D(Al  1,H   4,Al  0,Al 12)     56.6438         0.010000   
    104. D(Al  1,H   4,Al  0,H  11)    161.4826         0.010000   
    105. D(Al  1,H   4,Al  0,H   6)     49.2220         0.010000   
    106. D(Al  0,H   4,Al  1,H   7)    139.7487         0.010000   
    107. D(Al 12,H   6,Al  0,H  11)    -54.4821         0.010000   
    108. D(Al 12,H   6,Al  0,H   5)    165.2326         0.010000   
    109. D(Al 12,H   6,Al  0,H   4)     54.2511         0.010000   
    110. D(Al 12,H   6,Al  0,Al  1)     73.3423         0.010000   
    111. D(H   2,Al  8,Al  1,H   3)    117.0961         0.010000   
    112. D(H   2,Al  8,Al  1,Al  0)   -160.6666         0.010000   
    113. D(H   2,Al  8,Al  1,H   7)    -34.4022         0.010000   
    114. D(H   2,Al  8,Al  1,H   4)   -134.9902         0.010000   
    115. D(H   9,Al  8,Al  1,Al  0)     74.1428         0.010000   
    116. D(H  15,Al  8,H   2,Al  1)    -57.5340         0.010000   
    117. D(H  10,Al  8,H   2,Al  1)    162.0416         0.010000   
    118. D(H   9,Al  8,H   2,Al  1)     53.7273         0.010000   
    119. D(H  10,Al  8,Al  1,Al  0)    176.9812         0.010000   
    120. D(H   9,Al  8,Al  1,H   7)   -159.5927         0.010000   
    121. D(H   9,Al  8,Al  1,H   4)     99.8192         0.010000   
    122. D(Al 12,Al  8,H   2,Al  1)     29.0311         0.010000   
    123. D(H   9,Al  8,Al  1,H   3)     -8.0945         0.010000   
    124. D(H   9,Al  8,Al  1,H   2)   -125.1906         0.010000   
    125. D(Al 12,H   9,Al  8,H  15)     -5.9092         0.010000   
    126. D(Al 12,H   9,Al  8,H  10)    135.8595         0.010000   
    127. D(Al 12,H   9,Al  8,H   2)   -116.6981         0.010000   
    128. D(Al 12,H   9,Al  8,Al  1)    -96.7361         0.010000   
    129. D(Al  0,Al 12,Al  8,H  10)   -176.5111         0.010000   
    130. D(Al  0,Al 12,Al  8,H   9)   -122.6147         0.010000   
    131. D(Al  0,Al 12,Al  8,H   2)    -54.9968         0.010000   
    132. D(H  14,Al 12,H   6,Al  0)     59.5078         0.010000   
    133. D(H  13,Al 12,H   6,Al  0)   -159.9688         0.010000   
    134. D(H   9,Al 12,H   6,Al  0)    -53.2455         0.010000   
    135. D(Al  8,Al 12,H   6,Al  0)    -29.6662         0.010000   
    136. D(H   9,Al 12,Al  0,Al  1)     22.1931         0.010000   
    137. D(Al  8,Al 12,Al  0,H  11)    -82.6983         0.010000   
    138. D(Al  8,Al 12,Al  0,H   6)    149.6491         0.010000   
    139. D(Al  8,Al 12,Al  0,H   5)    134.0344         0.010000   
    140. D(Al  8,Al 12,Al  0,H   4)     23.1100         0.010000   
    141. D(Al  8,Al 12,Al  0,Al  1)     44.4157         0.010000   
    142. D(Al  0,Al 12,Al  8,Al  1)    -43.2632         0.010000   
    143. D(H   6,Al 12,Al  0,H  11)    127.6526         0.010000   
    144. D(H   6,Al 12,Al  0,H   5)    -15.6147         0.010000   
    145. D(H   6,Al 12,Al  0,H   4)   -126.5391         0.010000   
    146. D(Al  0,Al 12,Al  8,H  15)     51.7349         0.010000   
    147. D(H   6,Al 12,Al  0,Al  1)   -105.2333         0.010000   
    148. D(H  14,Al 12,H   9,Al  8)    -50.1434         0.010000   
    149. D(H   6,Al 12,H   9,Al  8)     62.7416         0.010000   
    150. D(Al  0,Al 12,H   9,Al  8)     55.4130         0.010000   
    151. D(H   6,Al 12,Al  8,H  15)     56.3593         0.010000   
    152. D(H   6,Al 12,Al  8,H  10)   -171.8867         0.010000   
    153. D(H   6,Al 12,Al  8,H   9)   -117.9903         0.010000   
    154. D(H  13,Al 12,H   9,Al  8)    171.1804         0.010000   
    155. D(H   6,Al 12,Al  8,H   2)    -50.3724         0.010000   
    156. D(H   6,Al 12,Al  8,Al  1)    -38.6387         0.010000   
    -----------------------------------------------------------------

Number of atoms                         .... 16
Number of degrees of freedom            .... 156


         *************************************************************
         *                GEOMETRY OPTIMIZATION CYCLE   1            *
         *************************************************************
---------------------------------
CARTESIAN COORDINATES (ANGSTROEM)
---------------------------------
  Al     0.687672    1.162117    2.542515
  Al    -0.254538   -0.472028    0.091286
  H      0.489523   -2.006643    0.305731
  H     -1.645295   -0.490123    0.860046
  H      0.892582    0.373858    1.032522
  H     -0.415177    2.289809    2.349606
  H     -0.102094   -0.087950    3.383477
  H      0.034742   -0.074499   -1.417086
  Al     1.142238   -2.750560    1.709666
  H     -0.282778   -2.548602    2.632835
  H      1.236672   -4.295565    1.363319
  H      2.159075    1.316001    3.113559
  Al    -0.453025   -1.606926    4.059232
  H     -2.017805   -1.608759    4.325590
  H      0.711691   -1.998377    5.064759
  H      2.269777   -1.796553    2.297173

----------------------------
CARTESIAN COORDINATES (A.U.)
----------------------------
  NO LB      ZA    FRAG     MASS         X           Y           Z
   0 Al   13.0000    0    26.982    1.299511    2.196083    4.804658
   1 Al   13.0000    0    26.982   -0.481007   -0.892003    0.172505
   2 H     1.0000    0     1.008    0.925065   -3.792006    0.577748
   3 H     1.0000    0     1.008   -3.109157   -0.926197    1.625251
   4 H     1.0000    0     1.008    1.686736    0.706489    1.951183
   5 H     1.0000    0     1.008   -0.784571    4.327111    4.440111
   6 H     1.0000    0     1.008   -0.192930   -0.166201    6.393844
   7 H     1.0000    0     1.008    0.065653   -0.140783   -2.677904
   8 Al   13.0000    0    26.982    2.158516   -5.197804    3.230801
   9 H     1.0000    0     1.008   -0.534373   -4.816159    4.975338
  10 H     1.0000    0     1.008    2.336972   -8.117442    2.576300
  11 H     1.0000    0     1.008    4.080061    2.486881    5.883774
  12 Al   13.0000    0    26.982   -0.856094   -3.036650    7.670836
  13 H     1.0000    0     1.008   -3.813098   -3.040114    8.174180
  14 H     1.0000    0     1.008    1.344901   -3.776386    9.571008
  15 H     1.0000    0     1.008    4.289256   -3.394993    4.341028

--------------------------------
INTERNAL COORDINATES (ANGSTROEM)
--------------------------------
 Al     0   0   0     0.000000000000     0.00000000     0.00000000
 Al     1   0   0     3.093010413808     0.00000000     0.00000000
 H      2   1   0     1.718911963769   103.94295310     0.00000000
 H      2   1   3     1.589190247376    83.64057422   106.97526901
 H      2   1   3     1.708019916016    25.44898429   288.87218544
 H      1   2   3     1.589080693397    93.85949895   195.54636589
 H      1   2   3     1.701062208121    82.07389718   300.20183857
 H      2   1   3     1.586472959089   124.44109868   240.04437263
 Al     3   2   1     1.717696613175   130.77647556    19.67250329
 H      9   3   2     1.709882360763    94.21168151    53.72726862
 H      9   3   2     1.586164301959   105.42670299   162.04164187
 H      1   2   3     1.585812166584   128.26463677    48.07513876
 Al     7   1   2     1.699142610645   161.70562640    73.34234966
 H     13   7   1     1.587288234662   105.74612038   200.03117437
 H     13   7   1     1.587729319236   108.70936256    59.50778291
 H      9   3   2     1.589539893486   108.16240515   302.46602109

---------------------------
INTERNAL COORDINATES (A.U.)
---------------------------
 Al     0   0   0     0.000000000000     0.00000000     0.00000000
 Al     1   0   0     5.844942611464     0.00000000     0.00000000
 H      2   1   0     3.248272859845   103.94295310     0.00000000
 H      2   1   3     3.003134342239    83.64057422   106.97526901
 H      2   1   3     3.227689872553    25.44898429   288.87218544
 H      1   2   3     3.002927315222    93.85949895   195.54636589
 H      1   2   3     3.214541710111    82.07389718   300.20183857
 H      2   1   3     2.997999411550   124.44109868   240.04437263
 Al     3   2   1     3.245976180064   130.77647556    19.67250329
 H      9   3   2     3.231209383065    94.21168151    53.72726862
 H      9   3   2     2.997416134105   105.42670299   162.04164187
 H      1   2   3     2.996750694684   128.26463677    48.07513876
 Al     7   1   2     3.210914196595   161.70562640    73.34234966
 H     13   7   1     2.999540059107   105.74612038   200.03117437
 H     13   7   1     3.000373588153   108.70936256    59.50778291
 H      9   3   2     3.003795077631   108.16240515   302.46602109

---------------------
BASIS SET INFORMATION
---------------------
There are 2 groups of distinct atoms

 Group   1 Type Al  : 14s9p3d1f contracted to 5s5p2d1f pattern {73211/51111/21/1}
 Group   2 Type H   : 5s1p contracted to 3s1p pattern {311/1}

Atom   0Al   basis set group =>   1
Atom   1Al   basis set group =>   1
Atom   2H    basis set group =>   2
Atom   3H    basis set group =>   2
Atom   4H    basis set group =>   2
Atom   5H    basis set group =>   2
Atom   6H    basis set group =>   2
Atom   7H    basis set group =>   2
Atom   8Al   basis set group =>   1
Atom   9H    basis set group =>   2
Atom  10H    basis set group =>   2
Atom  11H    basis set group =>   2
Atom  12Al   basis set group =>   1
Atom  13H    basis set group =>   2
Atom  14H    basis set group =>   2
Atom  15H    basis set group =>   2
---------------------------------
AUXILIARY/J BASIS SET INFORMATION
---------------------------------
There are 2 groups of distinct atoms

 Group   1 Type Al  : 14s5p5d2f1g contracted to 8s4p3d1f1g pattern {71111111/2111/311/2/1}
 Group   2 Type H   : 5s2p1d contracted to 3s1p1d pattern {311/2/1}

Atom   0Al   basis set group =>   1
Atom   1Al   basis set group =>   1
Atom   2H    basis set group =>   2
Atom   3H    basis set group =>   2
Atom   4H    basis set group =>   2
Atom   5H    basis set group =>   2
Atom   6H    basis set group =>   2
Atom   7H    basis set group =>   2
Atom   8Al   basis set group =>   1
Atom   9H    basis set group =>   2
Atom  10H    basis set group =>   2
Atom  11H    basis set group =>   2
Atom  12Al   basis set group =>   1
Atom  13H    basis set group =>   2
Atom  14H    basis set group =>   2
Atom  15H    basis set group =>   2


           ************************************************************
           *        Program running with 24 parallel MPI-processes    *
           *              working on a common directory               *
           ************************************************************
------------------------------------------------------------------------------
                             ORCA STARTUP CALCULATIONS
                           -- RI-GTO INTEGRALS CHOSEN --
------------------------------------------------------------------------------
------------------------------------------------------------------------------
                   ___                                                        
                  /   \      - P O W E R E D   B Y -                         
                 /     \                                                     
                 |  |  |   _    _      __       _____    __    __             
                 |  |  |  | |  | |    /  \     |  _  \  |  |  /  |          
                  \  \/   | |  | |   /    \    | | | |  |  | /  /          
                 / \  \   | |__| |  /  /\  \   | |_| |  |  |/  /          
                |  |  |   |  __  | /  /__\  \  |    /   |      \           
                |  |  |   | |  | | |   __   |  |    \   |  |\   \          
                \     /   | |  | | |  |  |  |  | |\  \  |  | \   \       
                 \___/    |_|  |_| |__|  |__|  |_| \__\ |__|  \__/        
                                                                              
                      - O R C A' S   B I G   F R I E N D -                    
                                      &                                       
                       - I N T E G R A L  F E E D E R -                       
                                                                              
 v1 FN, 2020, v2 2021, v3 2022-2024                                           
------------------------------------------------------------------------------


----------------------
SHARK INTEGRAL PACKAGE
----------------------

Number of atoms                             ...     16
Number of basis functions                   ...    220
Number of shells                            ...    100
Maximum angular momentum                    ...      3
Integral batch strategy                     ... SHARK/LIBINT Hybrid
RI-J (if used) integral strategy            ... SPLIT-RIJ (Revised 2003 algorithm where possible)
Printlevel                                  ...      1
Contraction scheme used                     ... SEGMENTED contraction
Prescreening option                         ... SCHWARTZ
   Thresh                                   ... 2.500e-11
   Tcut                                     ... 2.500e-12
   Tpresel                                  ... 2.500e-12 
Coulomb Range Separation                    ... NOT USED
Exchange Range Separation                   ... NOT USED
Multipole approximations                    ... NOT USED
Finite Nucleus Model                        ... NOT USED
CABS basis                                  ... NOT available
Auxiliary Coulomb fitting basis             ... AVAILABLE
   # of basis functions in Aux-J            ...    336
   # of shells in Aux-J                     ...    128
   Maximum angular momentum in Aux-J        ...      4
Auxiliary J/K fitting basis                 ... NOT available
Auxiliary Correlation fitting basis         ... NOT available
Auxiliary 'external' fitting basis          ... NOT available

Checking pre-screening integrals            ... done (  0.0 sec) Dimension = 100
   => SHARK Basis and OBASIS are compatible. Storing Pre-screening
Shell pair information
Shell pair cut-off parameter TPreSel        ...   2.5e-12
Total number of shell pairs                 ...      5050
Shell pairs after pre-screening             ...      4482
Total number of primitive shell pairs       ...     16470
Primitive shell pairs kept                  ...     10607
          la=0 lb=0:   1421 shell pairs
          la=1 lb=0:   1507 shell pairs
          la=1 lb=1:    421 shell pairs
          la=2 lb=0:    447 shell pairs
          la=2 lb=1:    256 shell pairs
          la=2 lb=2:     36 shell pairs
          la=3 lb=0:    224 shell pairs
          la=3 lb=1:    128 shell pairs
          la=3 lb=2:     32 shell pairs
          la=3 lb=3:     10 shell pairs

Checking whether 4 symmetric matrices of dimension 220 fit in memory
:Max Core in MB      =   4096.00
 MB in use           =      8.94
 MB left             =   4087.06
 MB needed           =      0.74
 Data fit in memory  = YES
Calculating RI/J V-Matrix + Cholesky decomp.... done (  0.1 sec)
Calculating Nuclear repulsion               ... done (  0.0 sec) ENN=    289.617051632507 Eh

Diagonalization of the overlap matrix:
Smallest eigenvalue                        ... 1.520e-03
Time for diagonalization                   ...    0.066 sec
Threshold for overlap eigenvalues          ... 1.000e-07
Number of eigenvalues below threshold      ... 0
Time for construction of square roots      ...    0.007 sec
Total time needed                          ...    0.076 sec

-------------------
DFT GRID GENERATION
-------------------

General Integration Accuracy     IntAcc      ... 4.959
Radial Grid Type                 RadialGrid  ... OptM3 with GC (2021)
Angular Grid (max. ang.)         AngularGrid ... 6 (Lebedev-590)
Angular grid pruning method      GridPruning ... 4 (adaptive)
Weight generation scheme         WeightScheme... mBecke (2022)
Basis function cutoff            BFCut       ... 1.0000e-11
Integration weight cutoff        WCut        ... 1.0000e-14
Partially contracted basis set               ... off
Rotationally invariant grid construction     ... off
Angular grids for H and He will be reduced by one unit

Total number of grid points                  ...   169531
Total number of batches                      ...     2655
Average number of points per batch           ...       63
Average number of grid points per atom       ...    10596
Grids setup in   4.4 sec
Initializing property integral containers    ... done (  0.0 sec)

SHARK setup successfully completed in   5.3 seconds

Maximum memory used throughout the entire STARTUP-calculation: 36.7 MB


           ************************************************************
           *        Program running with 24 parallel MPI-processes    *
           *              working on a common directory               *
           ************************************************************
-------------------------------------------------------------------------------
                                 ORCA GUESS
                   Start orbitals & Density for SCF / CASSCF
-------------------------------------------------------------------------------

------------
SCF SETTINGS
------------
Hamiltonian:
 Density Functional     Method          .... DFT(GTOs)
 Exchange Functional    Exchange        .... PBE
   PBE kappa parameter   XKappa         ....  0.804000
   PBE mue parameter    XMuePBE         ....  0.219520
 Correlation Functional Correlation     .... PBE
   PBE beta parameter  CBetaPBE         ....  0.066725
 LDA part of GGA corr.  LDAOpt          .... PW91-LDA
 Gradients option       PostSCFGGA      .... off
   NL short-range parameter             ....  6.400000
 RI-approximation to the Coulomb term is turned on
   Number of AuxJ basis functions       .... 336


General Settings:
 Integral files         IntName         .... run
 Hartree-Fock type      HFTyp           .... RHF
 Total Charge           Charge          ....    0
 Multiplicity           Mult            ....    1
 Number of Electrons    NEL             ....   64
 Basis Dimension        Dim             ....  220
 Nuclear Repulsion      ENuc            ....    289.6170516325 Eh

Convergence Acceleration:
 AO-DIIS                CNVDIIS         .... on
   Start iteration      DIISMaxIt       ....    12
   Startup error        DIISStart       ....  0.200000
   # of expansion vecs  DIISMaxEq       ....     5
   Bias factor          DIISBfac        ....   1.050
   Max. coefficient     DIISMaxC        ....  10.000
 MO-DIIS                CNVKDIIS        .... off
 Trust-Rad. Augm. Hess. CNVTRAH         .... auto
   Auto Start mean grad. ratio tolernc. ....  1.125000
   Auto Start start iteration           ....    50
   Auto Start num. interpolation iter.  ....    10
   Max. Number of Micro iterations      ....    24
   Max. Number of Macro iterations      .... Maxiter - #DIIS iter
   Number of Davidson start vectors     ....     2
   Converg. threshold    (grad. norm)   ....   1.000e-05
   Grad. Scal. Fac. for Micro threshold ....   0.100
   Minimum threshold for Micro iter.    ....   1.000e-02
   NR start threshold (gradient norm)   ....   1.000e-04
   Initial trust radius                 ....   0.400
   Minimum AH scaling param. (alpha)    ....   1.000
   Maximum AH scaling param. (alpha)    .... 1000.000
   Quad. conv. algorithm                .... NR
   White noise on init. David. guess    .... on
   Maximum white noise                  ....   0.010
   Pseudo random numbers                .... off
   Inactive MOs                         .... canonical
   Orbital update algorithm             .... Taylor
   Preconditioner                       .... Diag
   Full preconditioner red. dimension   ....   250
 SOSCF                 CNVSOSCF           .... on
   Start iteration     SOSCFMaxIt         ....   150
   Startup grad/error  SOSCFStart         ....  0.003300
   Hessian update      SOSCFHessUp        .... L-BFGS
   Autom. constraints  SOSCFAutoConstrain .... off
 Level Shifting         CNVShift        .... on
   Level shift para.    LevelShift      ....    0.2500
   Turn off err/grad.   ShiftErr        ....    0.0010
 Zerner damping         CNVZerner       .... off
 Static damping         CNVDamp         .... on
   Fraction old density DampFac         ....    0.7000
   Max. Damping (<1)    DampMax         ....    0.9800
   Min. Damping (>=0)   DampMin         ....    0.0000
   Turn off err/grad.   DampErr         ....    0.1000

SCF Procedure:
 Maximum # iterations   MaxIter         ....   125
 SCF integral mode      SCFMode         .... Direct
   Integral package                     .... SHARK and LIBINT hybrid scheme
 Reset frequency        DirectResetFreq ....    20
 Integral Threshold     Thresh          ....  2.500e-11 Eh
 Primitive CutOff       TCut            ....  2.500e-12 Eh

Convergence Tolerance:
 Convergence Check Mode ConvCheckMode   .... Total+1el-Energy
 Convergence forced     ConvForced      .... 0
 Energy Change          TolE            ....  1.000e-08 Eh
 1-El. energy change                    ....  1.000e-05 Eh
 Orbital Gradient       TolG            ....  1.000e-05
 Orbital Rotation angle TolX            ....  1.000e-05
 DIIS Error             TolErr          ....  5.000e-07

------------------------------
INITIAL GUESS: MODEL POTENTIAL
------------------------------
Loading Hartree-Fock densities                     ... done
Calculating cut-offs                               ... done
Initializing the effective Hamiltonian             ... done
Setting up the integral package (SHARK)            ... done
Starting the Coulomb interaction                   ... done (   0.1 sec)
Making the grid                                    ... done (   0.2 sec)
Mapping shells                                     ... done
Starting the XC term evaluation                    ... done (   0.0 sec)
  promolecular density results
     # of electrons  =     63.996348379
     EX              =    -75.592482221
     EC              =     -2.207496243
     EX+EC           =    -77.799978464
Transforming the Hamiltonian                       ... done (   0.0 sec)
Diagonalizing the Hamiltonian                      ... done (   0.0 sec)
Back transforming the eigenvectors                 ... done (   0.0 sec)
Now organizing SCF variables                       ... done
                      ------------------
                      INITIAL GUESS DONE (   0.4 sec)
                      ------------------
             **** ENERGY FILE WAS UPDATED (run.en.tmp) ****
Finished Guess after   1.0 sec
Maximum memory used throughout the entire GUESS-calculation: 13.2 MB


           ************************************************************
           *        Program running with 24 parallel MPI-processes    *
           *              working on a common directory               *
           ************************************************************

-------------------------------------------------------------------------------------------
                                      ORCA LEAN-SCF
                              memory conserving SCF solver
-------------------------------------------------------------------------------------------

--------------------
CPCM SOLVATION MODEL
--------------------
CPCM parameters:
  Epsilon                                         ...       1.9578
  Refrac                                          ...       1.0000
  Rsolv                                           ...       1.3000
  Surface type                                    ... GAUSSIAN VDW
  Discretization scheme                           ... Constant charge density
    Threshold for H atoms                         ...       5.0000 (charges/Ang^2)
    Threshold for non-H atoms                     ...       5.0000 (charges/Ang^2)
  Epsilon function type                           ...         CPCM
Solvent:                                          ... CUSTOM
Radii:
  Scheme                                          ... Element-dependent radii
  Radius for Al used is    4.1725 Bohr (=   2.2080 Ang.)
  Radius for H  used is    2.4944 Bohr (=   1.3200 Ang.)
Calculating surface                               ...        done! (  0.0s)
Cavity surface points                             ...         1475
Cavity Volume                                     ...    1227.2916
Cavity Surface-area                               ...     708.2117
Calculating surface distance matrix               ...        done! (  0.0s)
Performing Cholesky decomposition & store         ...        done! (  0.1s)
Overall time for CPCM initialization              ...                 0.2s

----------------------------------------D-I-I-S--------------------------------------------
Iteration    Energy (Eh)           Delta-E    RMSDP     MaxDP     DIISErr   Damp  Time(sec)
-------------------------------------------------------------------------------------------
               ***  Starting incremental Fock matrix formation  ***
    1    -976.2925893927658763     0.00e+00  3.00e-03  1.77e-02  8.38e-02  0.700   0.8
    2    -976.3089044397811449    -1.63e-02  2.71e-03  1.64e-02  5.71e-02  0.700   0.7
                               ***Turning on AO-DIIS***
    3    -976.3194542322491998    -1.05e-02  1.58e-03  9.23e-03  3.44e-02  0.700   0.6
    4    -976.3258056370564191    -6.35e-03  3.37e-03  1.87e-02  2.25e-02  0.000   0.6
                              *** Initializing SOSCF ***
---------------------------------------S-O-S-C-F--------------------------------------
Iteration    Energy (Eh)           Delta-E    RMSDP     MaxDP     MaxGrad    Time(sec)
--------------------------------------------------------------------------------------
    5    -976.3385520485558118    -1.27e-02  3.13e-04  2.36e-03  1.54e-03     0.7
               *** Restarting incremental Fock matrix formation ***
    6    -976.3385839076568118    -3.19e-05  1.63e-04  8.82e-04  1.72e-04     0.7
    7    -976.3385868424757064    -2.93e-06  5.42e-05  6.24e-04  1.20e-04     0.6
    8    -976.3385878559236062    -1.01e-06  2.10e-05  2.00e-04  2.88e-05     0.6
    9    -976.3385878957860768    -3.99e-08  6.91e-06  4.48e-05  1.43e-05     0.6
   10    -976.3385879209918130    -2.52e-08  1.04e-06  1.32e-05  2.67e-06     0.6
   11    -976.3385879149780067     6.01e-09  5.75e-07  6.90e-06  1.38e-06     0.5
                 **** Energy Check signals convergence ****

               *****************************************************
               *                     SUCCESS                       *
               *           SCF CONVERGED AFTER  11 CYCLES          *
               *****************************************************

             **** ENERGY FILE WAS UPDATED (run.en.tmp) ****

----------------
TOTAL SCF ENERGY
----------------

Total Energy       :       -976.33858792563660 Eh          -26567.52364 eV

Components:
Nuclear Repulsion  :        289.61705163250696 Eh            7880.88063 eV
Electronic Energy  :      -1265.95044697984986 Eh          -34448.26298 eV
One Electron Energy:      -1932.22422539459671 Eh          -52578.49421 eV
Two Electron Energy:        666.27377841474697 Eh           18130.23123 eV
CPCM Dielectric    :         -0.00519257829382 Eh              -0.14130 eV

Virial components:
Potential Energy   :      -1950.43249770506327 Eh          -53073.96649 eV
Kinetic Energy     :        974.09390977942678 Eh           26506.44285 eV
Virial Ratio       :          2.00230437550597

DFT components:
N(Alpha)           :       31.999996814276 electrons
N(Beta)            :       31.999996814276 electrons
N(Total)           :       63.999993628552 electrons
E(X)               :      -76.215204045464 Eh       
E(C)               :       -2.177214256828 Eh       
E(XC)              :      -78.392418302291 Eh       

CPCM Solvation Model Properties:
Surface-charge          :         -0.06879372400301
Corrected charge        :         -0.00000000000000
Outlying charge corr.   :          0.00016301864687 Eh               0.00444 eV
Free-energy (cav+disp)  :  This term is not implemented in the current solvation scheme

---------------
SCF CONVERGENCE
---------------

  Last Energy change         ...   -6.0138e-09  Tolerance :   1.0000e-08
  Last MAX-Density change    ...    6.8970e-06  Tolerance :   1.0000e-07
  Last RMS-Density change    ...    5.7507e-07  Tolerance :   5.0000e-09
  Last DIIS Error            ...    1.5403e-03  Tolerance :   5.0000e-07
  Last Orbital Gradient      ...    1.3839e-06  Tolerance :   1.0000e-05
  Last Orbital Rotation      ...    1.5560e-06  Tolerance :   1.0000e-05


----------------
ORBITAL ENERGIES
----------------

  NO   OCC          E(Eh)            E(eV) 
   0   2.0000     -55.378714     -1506.9314 
   1   2.0000     -55.378625     -1506.9290 
   2   2.0000     -55.377642     -1506.9023 
   3   2.0000     -55.377626     -1506.9018 
   4   2.0000      -3.939060      -107.1873 
   5   2.0000      -3.938901      -107.1829 
   6   2.0000      -3.937625      -107.1482 
   7   2.0000      -3.937564      -107.1466 
   8   2.0000      -2.544105       -69.2286 
   9   2.0000      -2.543979       -69.2252 
  10   2.0000      -2.542637       -69.1887 
  11   2.0000      -2.542566       -69.1867 
  12   2.0000      -2.541893       -69.1684 
  13   2.0000      -2.541745       -69.1644 
  14   2.0000      -2.540671       -69.1352 
  15   2.0000      -2.540644       -69.1344 
  16   2.0000      -2.536565       -69.0234 
  17   2.0000      -2.536357       -69.0178 
  18   2.0000      -2.534959       -68.9797 
  19   2.0000      -2.534870       -68.9773 
  20   2.0000      -0.475873       -12.9492 
  21   2.0000      -0.419790       -11.4231 
  22   2.0000      -0.414804       -11.2874 
  23   2.0000      -0.349411        -9.5080 
  24   2.0000      -0.328212        -8.9311 
  25   2.0000      -0.303219        -8.2510 
  26   2.0000      -0.295242        -8.0340 
  27   2.0000      -0.291489        -7.9318 
  28   2.0000      -0.283385        -7.7113 
  29   2.0000      -0.274464        -7.4686 
  30   2.0000      -0.269316        -7.3285 
  31   2.0000      -0.266016        -7.2387 
  32   0.0000      -0.057714        -1.5705 
  33   0.0000      -0.050557        -1.3757 
  34   0.0000      -0.048652        -1.3239 
  35   0.0000      -0.042884        -1.1669 
  36   0.0000      -0.038392        -1.0447 
  37   0.0000      -0.022519        -0.6128 
  38   0.0000      -0.002390        -0.0650 
  39   0.0000       0.004424         0.1204 
  40   0.0000       0.011098         0.3020 
  41   0.0000       0.014026         0.3817 
  42   0.0000       0.017256         0.4696 
*Only the first 10 virtual orbitals were printed.
-------
TIMINGS
-------

Total SCF time: 0 days 0 hours 0 min 8 sec 

Total time                  ....       8.453 sec
Sum of individual times     ....       7.871 sec  ( 93.1%)

SCF preparation             ....       0.889 sec  ( 10.5%)
Fock matrix formation       ....       6.183 sec  ( 73.1%)
  Startup                   ....       0.015 sec  (  0.2% of F)
  Split-RI-J                ....       0.921 sec  ( 14.9% of F)
  XC integration            ....       3.668 sec  ( 59.3% of F)
    XC Preparation          ....       0.000 sec  (  0.0% of XC)
    Basis function eval.    ....       0.995 sec  ( 27.1% of XC)
    Density eval.           ....       0.781 sec  ( 21.3% of XC)
    XC-Functional eval.     ....       0.107 sec  (  2.9% of XC)
    XC-Potential eval.      ....       0.788 sec  ( 21.5% of XC)
  CPCM terms                ....       1.806 sec  ( 29.2% of F)
Diagonalization             ....       0.000 sec  (  0.0%)
Density matrix formation    ....       0.093 sec  (  1.1%)
Total Energy calculation    ....       0.056 sec  (  0.7%)
Population analysis         ....       0.000 sec  (  0.0%)
Orbital Transformation      ....       0.079 sec  (  0.9%)
Orbital Orthonormalization  ....       0.000 sec  (  0.0%)
DIIS solution               ....       0.320 sec  (  3.8%)
SOSCF solution              ....       0.250 sec  (  3.0%)
Finished LeanSCF after   8.5 sec

Maximum memory used throughout the entire LEANSCF-calculation: 13.1 MB


           ************************************************************
           *        Program running with 24 parallel MPI-processes    *
           *              working on a common directory               *
           ************************************************************

------------------------------------------------------------------------------
                         ORCA PROPERTY INTEGRAL CALCULATIONS
------------------------------------------------------------------------------

GBWName                                   ... run.gbw
Number of atoms                           ...     16
Number of basis functions                 ...    220
Max core memory                           ...   4096 MB

Dipole integrals                          ... YES
Quadrupole integrals                      ...  NO
Linear momentum integrals                 ...  NO
Angular momentum integrals                ...  NO
Higher moments length integrals           ...  NO
Higher moments velocity integrals         ...  NO
Kinetic energy integrals                  ...  NO
GIAO right hand sides                     ...  NO
GIAO dipole derivative integrals          ...  NO
SOC integrals                             ...  NO
EPR diamagnetic integrals (GIAO)          ...  NO
EPR gauge integrals                       ...  NO
Field gradient integrals                  ...  NO (   0 nuclei)
Spin-dipole/Fermi contact integrals       ...  NO (   0 nuclei)
Contact density integrals                 ...  NO (   0 nuclei)
Nucleus-orbit integrals                   ...  NO (   0 nuclei)
Geometric perturbations                   ...  NO (  16 nuclei)

Choice of electric origin   ... Center of mass
Position of electric origin ... (  0.5297, -1.7314,  3.9713) 
Choice of magnetic origin   ... GIAO
Position of magnetic origin ... (  0.0000,  0.0000,  0.0000) 

Calculating integrals                     ... Electric Dipole (Length)     done (  0.0 sec)

Property integrals calculated in   0.0 sec

Maximum memory used throughout the entire PROPINT-calculation: 13.6 MB


-------------------------------------------------------------------------------
                          DFT DISPERSION CORRECTION                            
                                                                               
                              DFTD3 V3.1  Rev 1                                
                          USING Becke-Johnson damping                          
-------------------------------------------------------------------------------
The PBE functional is recognized
Active option DFTDOPT                   ...         4   

molecular C6(AA) [au] = 4941.447982 


            DFT-D V3
 parameters
 s6 scaling factor         :     1.0000 
 a1 scaling factor         :     0.4289 
 s8 scaling factor         :     0.7875 
 a2 scaling factor         :     4.4407 
 ad hoc parameters k1-k3   :    16.0000     1.3333    -4.0000 

 Edisp/kcal,au: -9.000806214048  -0.014343696193 
 E6   /kcal   :  -5.620737502 
 E8   /kcal   :  -3.380068712 
 % E8         :  37.552955052 

-------------------------   ----------------
Dispersion correction           -0.014343696
-------------------------   ----------------


-------------------------   --------------------
FINAL SINGLE POINT ENERGY      -976.352931621829
-------------------------   --------------------



           ************************************************************
           *        Program running with 24 parallel MPI-processes    *
           *              working on a common directory               *
           ************************************************************
------------------------------------------------------------------------------
                         ORCA SCF GRADIENT CALCULATION
------------------------------------------------------------------------------

Nuc. rep. gradient        (SHARK) ... done (  0.0 sec)
HCore & Overlap gradient  (SHARK) ... done (  0.1 sec)
Split-RIJ-J gradient      (SHARK) ... done (  0.5 sec)
XC gradient                       ... done (  2.0 sec)
CPCM gradient                     ... done (  0.6 sec)
Dispersion correction             ... done (  0.1 sec)

-------------------
DISPERSION GRADIENT
-------------------

   1   Al  :    0.000101679    0.000554787    0.000109776
   2   Al  :   -0.000136626    0.000093887   -0.000511284
   3   H   :    0.000019181   -0.000100674   -0.000164207
   4   H   :   -0.000206278    0.000038559   -0.000170173
   5   H   :    0.000056144    0.000147685   -0.000110920
   6   H   :   -0.000027950    0.000183950    0.000038477
   7   H   :   -0.000046860    0.000104972    0.000165157
   8   H   :   -0.000020041    0.000032510   -0.000154872
   9   Al  :    0.000221628   -0.000465965   -0.000116381
  10   H   :   -0.000052541   -0.000177223    0.000069957
  11   H   :    0.000053405   -0.000146815   -0.000036708
  12   H   :    0.000126997    0.000151813    0.000058108
  13   Al  :   -0.000191757   -0.000189341    0.000517021
  14   H   :   -0.000133101   -0.000036475    0.000115584
  15   H   :    0.000008408   -0.000055902    0.000194611
  16   H   :    0.000227711   -0.000135768   -0.000004145

Difference to translation invariance:
           :    0.0000000000    0.0000000000    0.0000000000

Difference to rotation invariance:
           :   -0.0000000000    0.0000000000    0.0000000000

Norm of the Dispersion gradient    ...    0.0013189770
RMS gradient                       ...    0.0001903779
MAX gradient                       ...    0.0005547871

------------------
CARTESIAN GRADIENT
------------------

   1   Al  :    0.000531475    0.000866696    0.000486441
   2   Al  :   -0.000745537    0.000801166   -0.000263106
   3   H   :    0.000032217   -0.000188785   -0.000275079
   4   H   :    0.000338524   -0.000268684    0.000086872
   5   H   :    0.000209518   -0.000158432   -0.000361991
   6   H   :    0.000086960   -0.000319488   -0.000216979
   7   H   :   -0.000146647    0.000005284    0.000008973
   8   H   :    0.000095358   -0.000163882    0.000287247
   9   Al  :    0.000810344   -0.000432036    0.000772555
  10   H   :   -0.000183925   -0.000233458   -0.000365816
  11   H   :   -0.000174811    0.000287112   -0.000032988
  12   H   :   -0.000320900   -0.000147774   -0.000148867
  13   Al  :   -0.000513198   -0.000096888    0.000889915
  14   H   :    0.000331146   -0.000000272   -0.000181806
  15   H   :   -0.000064890   -0.000039971   -0.000358174
  16   H   :   -0.000285635    0.000089410   -0.000327197

Difference to translation invariance:
           :   -0.0000000000    0.0000000000   -0.0000000000

Difference to rotation invariance:
           :   -0.0000879695   -0.0001663831    0.0000543073

Norm of the Cartesian gradient     ...    0.0026081018
RMS gradient                       ...    0.0003764471
MAX gradient                       ...    0.0008899154

-------
TIMINGS
-------

Total SCF gradient time     ....        3.333 sec

Densities                   ....       0.003 sec  (  0.1%)
One electron gradient       ....       0.106 sec  (  3.2%)
RI-J Coulomb gradient       ....       0.484 sec  ( 14.5%)
XC gradient                 ....       2.016 sec  ( 60.5%)
CPCM gradient               ....       0.589 sec  ( 17.7%)
   A-Matrix (El+Nuc)        ....       0.010 sec  (  0.3%)
   Potential                ....       0.579 sec  ( 17.4%)

Maximum memory used throughout the entire SCFGRAD-calculation: 32.0 MB
------------------------------------------------------------------------------
                         ORCA GEOMETRY RELAXATION STEP
------------------------------------------------------------------------------

Reading the OPT-File                    .... done
Getting information on internals        .... done
Copying old internal coords+grads       .... done
Making the new internal coordinates     .... (2022 redundants) done
Validating the new internal coordinates .... (2022 redundants) done
Calculating the B-matrix                .... done
Calculating the G,G- and P matrices     .... done
Transforming gradient to internals      .... done
Projecting the internal gradient        .... done
Number of atoms                         ....  16
Number of internal coordinates          .... 156
Current Energy                          ....  -976.352931622 Eh
Current gradient norm                   ....     0.002608102 Eh/bohr
Maximum allowed component of the step   ....  0.300
Current trust radius                    ....  0.300
Evaluating the initial hessian          ....  (Almloef) done
Projecting the Hessian                  .... done
Forming the augmented Hessian           .... done
Diagonalizing the augmented Hessian     .... done
Last element of RFO vector              ....  0.999935359
Lowest eigenvalues of augmented Hessian:
 -0.000010808  0.011543137  0.016561388  0.018842356  0.029630180
Length of the computed step             ....  0.011370740
The final length of the internal step   ....  0.011370740
Converting the step to Cartesian space:
 Initial RMS(Int)=    0.0009103878
Transforming coordinates:
 Iter   0:  RMS(Cart)=    0.0019900518 RMS(Int)=    0.0009104387
done
Storing new coordinates                 .... done

                                .--------------------.
          ----------------------|Geometry convergence|-------------------------
          Item                value                   Tolerance       Converged
          ---------------------------------------------------------------------
          RMS gradient        0.0001109646            0.0000300000      NO
          MAX gradient        0.0003640335            0.0001000000      NO
          RMS step            0.0009103878            0.0006000000      NO
          MAX step            0.0026267939            0.0010000000      NO
          -------------------------------------------------------------------------
          ........................................................
          Max(Bonds)      0.0013      Max(Angles)    0.07
          Max(Dihed)        0.15      Max(Improp)    0.00
          ---------------------------------------------------------------------

The optimization has not yet converged - more geometry cycles are needed


    ---------------------------------------------------------------------------
                         Redundant Internal Coordinates
                            (Angstroem and degrees)

        Definition                    Value    dE/dq     Step     New-Value
    ----------------------------------------------------------------------------
     1. B(Al  1,Al  0)                3.0930  0.000054 -0.0002    3.0929   
     2. B(H   2,Al  1)                1.7189  0.000194 -0.0005    1.7184   
     3. B(H   3,Al  1)                1.5892 -0.000249  0.0003    1.5895   
     4. B(H   4,Al  1)                1.7080 -0.000011 -0.0001    1.7079   
     5. B(H   4,Al  0)                1.7156  0.000246 -0.0006    1.7150   
     6. B(H   5,Al  0)                1.5891 -0.000262  0.0003    1.5894   
     7. B(H   6,Al  0)                1.7011  0.000158 -0.0008    1.7003   
     8. B(H   7,Al  1)                1.5865 -0.000298  0.0004    1.5869   
     9. B(Al  8,H   2)                1.7177  0.000178 -0.0005    1.7172   
    10. B(Al  8,Al  1)                3.1244  0.000191 -0.0004    3.1240   
    11. B(H   9,Al  8)                1.7099  0.000033 -0.0002    1.7097   
    12. B(H  10,Al  8)                1.5862 -0.000282  0.0004    1.5865   
    13. B(H  11,Al  0)                1.5858 -0.000364  0.0005    1.5863   
    14. B(Al 12,H   6)                1.6991  0.000090 -0.0006    1.6985   
    15. B(Al 12,Al  0)                3.3570  0.000230 -0.0013    3.3557   
    16. B(Al 12,H   9)                1.7177  0.000207 -0.0006    1.7171   
    17. B(Al 12,Al  8)                3.0616  0.000093 -0.0003    3.0613   
    18. B(H  13,Al 12)                1.5873 -0.000359  0.0005    1.5878   
    19. B(H  14,Al 12)                1.5877 -0.000262  0.0003    1.5881   
    20. B(H  15,Al  8)                1.5895 -0.000272  0.0004    1.5899   
    21. A(H   5,Al  0,H  11)          128.23  0.000140   -0.05    128.18   
    22. A(Al  1,Al  0,Al 12)           79.56 -0.000012    0.04     79.59   
    23. A(Al  1,Al  0,H  11)          128.26 -0.000006   -0.00    128.26   
    24. A(H   4,Al  0,Al 12)           93.40  0.000018    0.01     93.41   
    25. A(H  11,Al  0,Al 12)          103.45  0.000016   -0.00    103.45   
    26. A(H   4,Al  0,H  11)          104.52 -0.000040    0.00    104.52   
    27. A(Al  1,Al  0,H   4)           25.33  0.000038   -0.01     25.31   
    28. A(Al  1,Al  0,H   5)           93.86 -0.000160    0.05     93.91   
    29. A(H   4,Al  0,H   5)          107.58 -0.000133    0.06    107.64   
    30. A(H   4,Al  0,H   6)           98.80  0.000025    0.01     98.81   
    31. A(H   5,Al  0,H   6)          105.03 -0.000048   -0.00    105.03   
    32. A(H   6,Al  0,H  11)          108.91  0.000028   -0.01    108.90   
    33. A(H   5,Al  0,Al 12)          113.85 -0.000041   -0.01    113.85   
    34. A(H   6,Al  0,Al 12)            9.14  0.000013   -0.01      9.14   
    35. A(Al  1,Al  0,H   6)           82.07 -0.000012    0.04     82.11   
    36. A(Al  0,Al  1,H   7)          124.44  0.000003   -0.01    124.43   
    37. A(H   3,Al  1,H   4)          109.08  0.000061   -0.02    109.06   
    38. A(H   2,Al  1,H   3)          107.96 -0.000089    0.04    108.00   
    39. A(H   2,Al  1,H   7)          105.27 -0.000127    0.03    105.30   
    40. A(H   3,Al  1,Al  8)           97.61 -0.000117    0.07     97.68   
    41. A(Al  0,Al  1,H   2)          103.94  0.000045    0.01    103.95   
    42. A(H   7,Al  1,Al  8)          126.42 -0.000087   -0.00    126.42   
    43. A(H   2,Al  1,H   4)           94.74  0.000008    0.03     94.77   
    44. A(Al  0,Al  1,H   4)           25.45  0.000076   -0.02     25.43   
    45. A(Al  0,Al  1,H   3)           83.64 -0.000013    0.00     83.64   
    46. A(H   4,Al  1,Al  8)           77.03 -0.000007    0.03     77.05   
    47. A(H   2,Al  1,Al  8)           24.60  0.000053   -0.02     24.58   
    48. A(Al  0,Al  1,Al  8)           80.71 -0.000004    0.02     80.73   
    49. A(H   4,Al  1,H   7)          106.10 -0.000089    0.01    106.11   
    50. A(H   3,Al  1,H   7)          128.49  0.000182   -0.06    128.43   
    51. A(Al  1,H   2,Al  8)          130.78 -0.000109    0.04    130.82   
    52. A(Al  0,H   4,Al  1)          129.22 -0.000114    0.04    129.26   
    53. A(Al  0,H   6,Al 12)          161.71 -0.000029    0.01    161.72   
    54. A(H   9,Al  8,H  15)          108.71  0.000111   -0.03    108.67   
    55. A(H   2,Al  8,H  15)          108.16 -0.000155    0.05    108.21   
    56. A(Al  1,Al  8,H  15)           94.06 -0.000177    0.07     94.13   
    57. A(H   2,Al  8,H  10)          105.43 -0.000099    0.03    105.45   
    58. A(Al  1,Al  8,H  10)          128.60 -0.000049    0.00    128.60   
    59. A(H   2,Al  8,H   9)           94.21 -0.000017    0.04     94.25   
    60. A(Al  1,Al  8,H   9)           79.69 -0.000022    0.04     79.72   
    61. A(Al  1,Al  8,H   2)           24.62  0.000056   -0.02     24.60   
    62. A(H   9,Al  8,H  10)          106.41 -0.000066    0.01    106.42   
    63. A(H  10,Al  8,Al 12)          124.23 -0.000005   -0.00    124.22   
    64. A(H   9,Al  8,Al 12)           26.78  0.000055   -0.02     26.77   
    65. A(H   2,Al  8,Al 12)          105.51  0.000029    0.01    105.53   
    66. A(Al  1,Al  8,Al 12)           83.81 -0.000013    0.03     83.84   
    67. A(H  10,Al  8,H  15)          128.54  0.000167   -0.06    128.48   
    68. A(Al 12,Al  8,H  15)           82.05  0.000065   -0.02     82.03   
    69. A(Al  8,H   9,Al 12)          126.56 -0.000083    0.03    126.59   
    70. A(H   9,Al 12,H  14)          108.54 -0.000197    0.05    108.59   
    71. A(Al  8,Al 12,H  14)           90.67 -0.000207    0.04     90.71   
    72. A(H   6,Al 12,H  14)          108.71  0.000049   -0.01    108.70   
    73. A(Al  0,Al 12,H  14)          103.90  0.000011   -0.00    103.90   
    74. A(H   9,Al 12,H  13)          103.68 -0.000078    0.01    103.69   
    75. A(Al  8,Al 12,H  13)          129.94 -0.000052    0.00    129.95   
    76. A(H   6,Al 12,H  13)          105.75 -0.000015   -0.00    105.74   
    77. A(Al  0,Al 12,H  13)          114.31 -0.000003   -0.01    114.31   
    78. A(H  13,Al 12,H  14)          128.07  0.000184   -0.04    128.03   
    79. A(Al  8,Al 12,H   9)           26.65  0.000028   -0.01     26.64   
    80. A(H   6,Al 12,H   9)           98.01  0.000010    0.01     98.02   
    81. A(Al  0,Al 12,H   9)           92.48  0.000003    0.02     92.50   
    82. A(H   6,Al 12,Al  8)           85.48  0.000000    0.03     85.50   
    83. A(Al  0,Al 12,Al  8)           77.55 -0.000014    0.04     77.58   
    84. A(Al  0,Al 12,H   6)            9.15  0.000016   -0.01      9.15   
    85. D(H   2,Al  1,Al  0,Al 12)    -50.89 -0.000034    0.08    -50.82   
    86. D(H   2,Al  1,Al  0,H   6)    -59.80 -0.000048    0.08    -59.71   
    87. D(H   3,Al  1,Al  0,Al 12)     56.08 -0.000130    0.12     56.20   
    88. D(H   3,Al  1,Al  0,H   5)    -57.48 -0.000116    0.14    -57.34   
    89. D(H   2,Al  1,Al  0,H   4)     71.13 -0.000010    0.04     71.16   
    90. D(H   3,Al  1,Al  0,H   4)    178.10 -0.000107    0.08    178.18   
    91. D(H   3,Al  1,Al  0,H   6)     47.18 -0.000145    0.13     47.31   
    92. D(H   2,Al  1,Al  0,H   5)   -164.45 -0.000020    0.09   -164.36   
    93. D(H   2,Al  1,Al  0,H  11)     48.08 -0.000022    0.10     48.18   
    94. D(H   3,Al  1,Al  0,H  11)    155.05 -0.000119    0.15    155.20   
    95. D(Al  8,H   2,Al  1,H   7)    151.88 -0.000034   -0.03    151.85   
    96. D(Al  8,H   2,Al  1,H   3)    -68.06  0.000030   -0.05    -68.12   
    97. D(Al  8,H   2,Al  1,Al  0)     19.67  0.000009   -0.04     19.63   
    98. D(Al  8,H   2,Al  1,H   4)     43.75  0.000079   -0.05     43.70   
    99. D(Al  0,H   4,Al  1,Al  8)    -95.67  0.000029   -0.00    -95.67   
   100. D(Al  1,H   4,Al  0,H   5)    -59.70  0.000043    0.04    -59.66   
   101. D(Al  0,H   4,Al  1,H   3)     -1.99 -0.000113    0.09     -1.91   
   102. D(Al  0,H   4,Al  1,H   2)   -112.85 -0.000034    0.03   -112.82   
   103. D(Al  1,H   4,Al  0,Al 12)     56.64 -0.000024    0.05     56.69   
   104. D(Al  1,H   4,Al  0,H  11)    161.48 -0.000007    0.05    161.54   
   105. D(Al  1,H   4,Al  0,H   6)     49.22 -0.000035    0.06     49.28   
   106. D(Al  0,H   4,Al  1,H   7)    139.75  0.000113   -0.01    139.74   
   107. D(Al 12,H   6,Al  0,H  11)    -54.48  0.000032   -0.02    -54.50   
   108. D(Al 12,H   6,Al  0,H   5)    165.23 -0.000139    0.05    165.28   
   109. D(Al 12,H   6,Al  0,H   4)     54.25  0.000007   -0.02     54.24   
   110. D(Al 12,H   6,Al  0,Al  1)     73.34  0.000024   -0.01     73.33   
   111. D(H   2,Al  8,Al  1,H   3)    117.10 -0.000002   -0.03    117.06   
   112. D(H   2,Al  8,Al  1,Al  0)   -160.67  0.000005   -0.04   -160.71   
   113. D(H   2,Al  8,Al  1,H   7)    -34.40 -0.000024   -0.04    -34.44   
   114. D(H   2,Al  8,Al  1,H   4)   -134.99  0.000084   -0.06   -135.05   
   115. D(H   9,Al  8,Al  1,Al  0)     74.14  0.000093   -0.10     74.05   
   116. D(H  15,Al  8,H   2,Al  1)    -57.53 -0.000003   -0.03    -57.57   
   117. D(H  10,Al  8,H   2,Al  1)    162.04 -0.000015   -0.01    162.03   
   118. D(H   9,Al  8,H   2,Al  1)     53.73  0.000077   -0.04     53.69   
   119. D(H  10,Al  8,Al  1,Al  0)    176.98 -0.000008   -0.06    176.93   
   120. D(H   9,Al  8,Al  1,H   7)   -159.59  0.000064   -0.10   -159.69   
   121. D(H   9,Al  8,Al  1,H   4)     99.82  0.000172   -0.12     99.70   
   122. D(Al 12,Al  8,H   2,Al  1)     29.03  0.000037   -0.04     28.99   
   123. D(H   9,Al  8,Al  1,H   3)     -8.09  0.000086   -0.09     -8.18   
   124. D(H   9,Al  8,Al  1,H   2)   -125.19  0.000088   -0.06   -125.25   
   125. D(Al 12,H   9,Al  8,H  15)     -5.91 -0.000207    0.10     -5.81   
   126. D(Al 12,H   9,Al  8,H  10)    135.86  0.000065   -0.00    135.86   
   127. D(Al 12,H   9,Al  8,H   2)   -116.70 -0.000057    0.04   -116.66   
   128. D(Al 12,H   9,Al  8,Al  1)    -96.74  0.000009    0.01    -96.73   
   129. D(Al  0,Al 12,Al  8,H  10)   -176.51  0.000069    0.03   -176.48   
   130. D(Al  0,Al 12,Al  8,H   9)   -122.61 -0.000001    0.03   -122.59   
   131. D(Al  0,Al 12,Al  8,H   2)    -55.00 -0.000048    0.08    -54.92   
   132. D(H  14,Al 12,H   6,Al  0)     59.51 -0.000217    0.01     59.52   
   133. D(H  13,Al 12,H   6,Al  0)   -159.97  0.000062   -0.06   -160.03   
   134. D(H   9,Al 12,H   6,Al  0)    -53.25 -0.000021   -0.04    -53.29   
   135. D(Al  8,Al 12,H   6,Al  0)    -29.67  0.000006   -0.05    -29.71   
   136. D(H   9,Al 12,Al  0,Al  1)     22.19  0.000010   -0.06     22.13   
   137. D(Al  8,Al 12,Al  0,H  11)    -82.70  0.000041   -0.07    -82.77   
   138. D(Al  8,Al 12,Al  0,H   6)    149.65  0.000004   -0.05    149.60   
   139. D(Al  8,Al 12,Al  0,H   5)    134.03 -0.000142    0.01    134.04   
   140. D(Al  8,Al 12,Al  0,H   4)     23.11  0.000007   -0.06     23.05   
   141. D(Al  8,Al 12,Al  0,Al  1)     44.42  0.000033   -0.06     44.35   
   142. D(Al  0,Al 12,Al  8,Al  1)    -43.26 -0.000009    0.05    -43.21   
   143. D(H   6,Al 12,Al  0,H  11)    127.65  0.000037   -0.02    127.63   
   144. D(H   6,Al 12,Al  0,H   5)    -15.61 -0.000146    0.05    -15.56   
   145. D(H   6,Al 12,Al  0,H   4)   -126.54  0.000003   -0.02   -126.56   
   146. D(Al  0,Al 12,Al  8,H  15)     51.73 -0.000195    0.12     51.86   
   147. D(H   6,Al 12,Al  0,Al  1)   -105.23  0.000029   -0.02   -105.25   
   148. D(H  14,Al 12,H   9,Al  8)    -50.14  0.000009    0.03    -50.12   
   149. D(H   6,Al 12,H   9,Al  8)     62.74  0.000010    0.03     62.78   
   150. D(Al  0,Al 12,H   9,Al  8)     55.41 -0.000005    0.04     55.45   
   151. D(H   6,Al 12,Al  8,H  15)     56.36 -0.000187    0.13     56.48   
   152. D(H   6,Al 12,Al  8,H  10)   -171.89  0.000076    0.03   -171.86   
   153. D(H   6,Al 12,Al  8,H   9)   -117.99  0.000007    0.03   -117.96   
   154. D(H  13,Al 12,H   9,Al  8)    171.18 -0.000020    0.04    171.22   
   155. D(H   6,Al 12,Al  8,H   2)    -50.37 -0.000040    0.08    -50.29   
   156. D(H   6,Al 12,Al  8,Al  1)    -38.64 -0.000001    0.06    -38.58   
    ----------------------------------------------------------------------------

Geometry step timings:
Preparation and reading OPT file:      0.000 s ( 0.308 %)
Internal coordinates            :      0.000 s ( 0.495 %)
B/P matrices and projection     :      0.005 s (27.923 %)
Hessian update/contruction      :      0.002 s (10.615 %)
Making the step                 :      0.009 s (49.753 %)
Converting the step to Cartesian:      0.000 s ( 2.334 %)
Storing new data                :      0.000 s ( 0.413 %)
Checking convergence            :      0.000 s ( 0.471 %)
Final printing                  :      0.001 s ( 7.676 %)
Total time                      :      0.017 s

Time for energy+gradient        :     22.840 s
Time for complete geometry iter :     23.641 s

         *************************************************************
         *                GEOMETRY OPTIMIZATION CYCLE   2            *
         *************************************************************
---------------------------------
CARTESIAN COORDINATES (ANGSTROEM)
---------------------------------
  Al     0.686386    1.161832    2.542516
  Al    -0.253635   -0.472152    0.090533
  H      0.489442   -2.006542    0.305705
  H     -1.645869   -0.488733    0.857325
  H      0.892086    0.373942    1.033140
  H     -0.417268    2.289429    2.350832
  H     -0.101917   -0.088197    3.383384
  H      0.036955   -0.074078   -1.417850
  Al     1.141339   -2.751180    1.709044
  H     -0.282568   -2.548222    2.633379
  H      1.234877   -4.296656    1.362870
  H      2.158001    1.317157    3.113935
  Al    -0.451778   -1.606654    4.059262
  H     -2.016739   -1.608660    4.327336
  H      0.713550   -1.996966    5.065064
  H      2.270398   -1.799121    2.297754

----------------------------
CARTESIAN COORDINATES (A.U.)
----------------------------
  NO LB      ZA    FRAG     MASS         X           Y           Z
   0 Al   13.0000    0    26.982    1.297081    2.195545    4.804660
   1 Al   13.0000    0    26.982   -0.479300   -0.892237    0.171082
   2 H     1.0000    0     1.008    0.924910   -3.791814    0.577699
[...]
      5       0.003653   0.006285  -0.025579  -0.014510  -0.018244  -0.000822
      6       0.007001   0.016670   0.009376  -0.061152  -0.060171  -0.012558
      7      -0.009364  -0.029268  -0.017464   0.115147   0.114455   0.022118
      8       0.013489   0.024376   0.003893  -0.079760  -0.079614  -0.015659
      9       0.229629   0.068433  -0.248262   0.054073  -0.168446   0.022998
     10       0.000163  -0.001575   0.003407  -0.001768   0.000156   0.004336
     11      -0.118119  -0.033289   0.119617  -0.033516   0.080123  -0.009064
     12      -0.051759  -0.023844  -0.007166  -0.055872  -0.007563   0.026875
     13      -0.097156  -0.031559  -0.024835  -0.087912  -0.020839   0.054799
     14      -0.140491  -0.047264  -0.040819  -0.137258  -0.034728   0.105303
     15      -0.415949   0.087815  -0.028699   0.205941  -0.176116   0.105942
     16       0.421330  -0.094726   0.027754  -0.220593   0.179851  -0.145584
     17      -0.063716   0.013848  -0.003947   0.034378  -0.025816   0.037212
     18       0.002344   0.005294   0.000111   0.005959   0.010647   0.303693
     19      -0.002472   0.000484  -0.005957   0.042812   0.012609   0.764020
     20      -0.000951   0.001583   0.001972  -0.025221  -0.006144  -0.419319
     21      -0.015460   0.026915  -0.125301  -0.103842  -0.094590   0.001198
     22      -0.016707   0.033506  -0.152218  -0.131490  -0.120568   0.002931
     23       0.073432  -0.120435   0.583761   0.496347   0.442520  -0.004221
     24       0.006201   0.003134  -0.004911  -0.000297   0.007231  -0.002597
     25       0.002197   0.001142  -0.028179   0.007912   0.023657  -0.001004
     26       0.005068   0.002205  -0.007772   0.003645   0.009032   0.001666
     27       0.093108   0.054557   0.027766  -0.015160  -0.032154   0.054479
     28      -0.065572  -0.033320  -0.026998   0.010110   0.030080  -0.056678
     29      -0.140968  -0.065466  -0.047613   0.019181   0.055609  -0.084308
     30      -0.007638  -0.005834  -0.034466   0.015509   0.029479   0.000623
     31       0.154528   0.087137   0.663122  -0.285495  -0.561661   0.007276
     32       0.036422   0.019991   0.150668  -0.061619  -0.123244  -0.000180
     33       0.109367   0.382007  -0.097780   0.588930  -0.360817  -0.150333
     34       0.010284   0.047112  -0.012452   0.072396  -0.042473  -0.035855
     35       0.045364   0.149658  -0.036428   0.234941  -0.137373  -0.040489
     36      -0.002288   0.038189   0.005518  -0.010513   0.015095  -0.000800
     37       0.006250  -0.003663  -0.000501   0.001345  -0.003232  -0.010401
     38      -0.010818   0.009954   0.003614  -0.005394   0.004127   0.003507
     39      -0.317928  -0.637100  -0.066123   0.095411  -0.197520  -0.180706
     40       0.001167  -0.005737   0.001226  -0.001901  -0.003994  -0.031818
     41       0.056560   0.124338   0.013792  -0.019684   0.036059   0.045487
     42       0.370274  -0.410449  -0.091379   0.188993  -0.205203   0.098444
     43      -0.114749   0.130865   0.030725  -0.061995   0.063070  -0.056600
     44       0.316755  -0.360419  -0.082620   0.165394  -0.175732   0.096119
     45      -0.242466  -0.124149   0.148218   0.033189  -0.167743   0.024742
     46      -0.197052  -0.099199   0.109368   0.029442  -0.124954   0.019825
     47      -0.123599  -0.066104   0.071607   0.019200  -0.080376   0.006970


-----------
IR SPECTRUM
-----------

 Mode   freq       eps      Int      T**2         TX        TY        TZ
       cm**-1   L/(mol*cm) km/mol    a.u.
----------------------------------------------------------------------------
  6:     10.56   0.000145    0.73  0.004283  (-0.045786 -0.042584  0.019319)
  7:     37.07   0.000201    1.02  0.001693  ( 0.014232 -0.025959 -0.028571)
  8:     90.65   0.000120    0.61  0.000415  ( 0.002975 -0.019245 -0.005960)
  9:    100.56   0.000100    0.51  0.000311  (-0.011976  0.012893  0.001240)
 10:    135.49   0.000448    2.26  0.001031  (-0.001484  0.017280  0.027030)
 11:    143.14   0.000321    1.62  0.000700  (-0.016990 -0.016241  0.012142)
 12:    238.92   0.000577    2.92  0.000754  (-0.008886  0.008402 -0.024587)
 13:    258.96   0.000399    2.02  0.000481  (-0.004942  0.016323  0.013785)
 14:    295.55   0.002014   10.18  0.002127  ( 0.028012 -0.025669 -0.026137)
 15:    347.48   0.001075    5.43  0.000965  ( 0.015230  0.012786 -0.023872)
 16:    366.09   0.005311   26.84  0.004527  (-0.001479 -0.044783 -0.050194)
 17:    374.70   0.003851   19.46  0.003208  ( 0.040423  0.033860 -0.020666)
 18:    395.25   0.000379    1.92  0.000300  ( 0.002712  0.000747 -0.017078)
 19:    414.66   0.000159    0.80  0.000119  ( 0.003584  0.008499  0.005859)
 20:    444.95   0.000887    4.48  0.000622  (-0.009362  0.013811  0.018542)
 21:    471.32   0.001507    7.62  0.000998  ( 0.003755  0.028590 -0.012908)
 22:    504.79   0.013517   68.31  0.008356  ( 0.015852  0.077786 -0.045321)
 23:    572.25   0.092238  466.13  0.050300  (-0.024797  0.111171  0.193199)
 24:    643.72   0.240121  1213.47  0.116406  ( 0.024851  0.332561 -0.072050)
 25:    645.02   0.170727  862.78  0.082599  ( 0.041300  0.005844 -0.284357)
 26:    655.75   0.123742  625.34  0.058888  (-0.215764  0.067135 -0.088467)
 27:    679.20   0.002932   14.82  0.001347  (-0.034450 -0.000334  0.012659)
 28:    697.69   0.013773   69.60  0.006161  ( 0.006776  0.046758  0.062677)
 29:    700.47   0.022694  114.68  0.010110  (-0.045146 -0.067252  0.059575)
 30:    711.63   0.021090  106.58  0.009248  (-0.096101 -0.002460  0.002593)
 31:    715.72   0.018283   92.39  0.007972  ( 0.057098 -0.068269 -0.007138)
 32:    731.22   0.012886   65.12  0.005499  ( 0.008204 -0.043744 -0.059316)
 33:    997.93   0.046427  234.62  0.014518  ( 0.018643 -0.061973 -0.101637)
 34:   1036.21   0.023713  119.84  0.007141  ( 0.080301  0.018144 -0.019080)
 35:   1064.73   0.024984  126.26  0.007323  ( 0.069728  0.043097  0.024559)
 36:   1737.32   0.061663  311.62  0.011076  (-0.020590 -0.060347  0.083729)
 37:   1783.34   0.261252  1320.26  0.045716  ( 0.054576 -0.145050 -0.147302)
 38:   1801.65   0.170809  863.20  0.029586  (-0.104227  0.053123 -0.126097)
 39:   1871.99   0.104305  527.12  0.017388  (-0.024388 -0.111572  0.065915)
 40:   1888.04   0.018397   92.97  0.003041  ( 0.013160 -0.042755 -0.032243)
 41:   1891.95   0.021229  107.28  0.003501  ( 0.018526  0.039942 -0.039534)
 42:   1892.91   0.002720   13.74  0.000448  ( 0.016337  0.001285  0.013409)
 43:   1900.69   0.014385   72.70  0.002362  ( 0.036123  0.003112  0.032361)
 44:   1903.40   0.034553  174.61  0.005665  ( 0.036087 -0.040621 -0.052082)
 45:   1904.39   0.035127  177.52  0.005756  (-0.062855  0.030379 -0.029707)
 46:   1906.34   0.067743  342.35  0.011089  ( 0.101675  0.026285  0.007788)
 47:   1982.38   0.176677  892.86  0.027812  (-0.054915 -0.138160  0.075555)

* The epsilon (eps) is given for a Dirac delta lineshape.
** The dipole moment derivative (T) already includes vibrational overlap.

The first frequency considered to be a vibration is 6
The total number of vibrations considered is 42


--------------------------
THERMOCHEMISTRY AT 298.15K
--------------------------

Temperature         ...   298.15 K
Pressure            ...     1.00 atm
Total Mass          ...   120.02 AMU
Quasi RRHO          ...     True
Cut-Off Frequency   ...     1.00 cm^-1

Throughout the following assumptions are being made:
  (1) The electronic state is orbitally nondegenerate
  (2) There are no thermally accessible electronically excited states
  (3) Hindered rotations indicated by low frequency modes are not
      treated as such but are treated as vibrations and this may
      cause some error
  (4) All equations used are the standard statistical mechanics
      equations for an ideal gas
  (5) All vibrations are strictly harmonic

freq.      10.56  E(vib)   ...       0.58 
freq.      37.07  E(vib)   ...       0.54 
freq.      90.65  E(vib)   ...       0.47 
freq.     100.56  E(vib)   ...       0.46 
freq.     135.49  E(vib)   ...       0.42 
freq.     143.14  E(vib)   ...       0.41 
freq.     238.92  E(vib)   ...       0.32 
freq.     258.96  E(vib)   ...       0.30 
freq.     295.55  E(vib)   ...       0.27 
freq.     347.48  E(vib)   ...       0.23 
freq.     366.09  E(vib)   ...       0.22 
freq.     374.70  E(vib)   ...       0.21 
freq.     395.25  E(vib)   ...       0.20 
freq.     414.66  E(vib)   ...       0.19 
freq.     444.95  E(vib)   ...       0.17 
freq.     471.32  E(vib)   ...       0.15 
freq.     504.79  E(vib)   ...       0.14 
freq.     572.25  E(vib)   ...       0.11 
freq.     643.72  E(vib)   ...       0.09 
freq.     645.02  E(vib)   ...       0.09 
freq.     655.75  E(vib)   ...       0.08 
freq.     679.20  E(vib)   ...       0.08 
freq.     697.69  E(vib)   ...       0.07 
freq.     700.47  E(vib)   ...       0.07 
freq.     711.63  E(vib)   ...       0.07 
freq.     715.72  E(vib)   ...       0.07 
freq.     731.22  E(vib)   ...       0.06 
freq.     997.93  E(vib)   ...       0.02 
freq.    1036.21  E(vib)   ...       0.02 
freq.    1064.73  E(vib)   ...       0.02 
freq.    1737.32  E(vib)   ...       0.00 
freq.    1783.34  E(vib)   ...       0.00 
freq.    1801.65  E(vib)   ...       0.00 
freq.    1871.99  E(vib)   ...       0.00 
freq.    1888.04  E(vib)   ...       0.00 
freq.    1891.95  E(vib)   ...       0.00 
freq.    1892.91  E(vib)   ...       0.00 
freq.    1900.69  E(vib)   ...       0.00 
freq.    1903.40  E(vib)   ...       0.00 
freq.    1904.39  E(vib)   ...       0.00 
freq.    1906.34  E(vib)   ...       0.00 
freq.    1982.38  E(vib)   ...       0.00 

------------
INNER ENERGY
------------

The inner energy is: U= E(el) + E(ZPE) + E(vib) + E(rot) + E(trans)
    E(el)   - is the total energy from the electronic structure calculation
              = E(kin-el) + E(nuc-el) + E(el-el) + E(nuc-nuc)
    E(ZPE)  - the the zero temperature vibrational energy from the frequency calculation
    E(vib)  - the the finite temperature correction to E(ZPE) due to population
              of excited vibrational states
    E(rot)  - is the rotational thermal energy
    E(trans)- is the translational thermal energy

Summary of contributions to the inner energy U:
Electronic energy                ...   -976.35298556 Eh
Zero point energy                ...      0.08416935 Eh      52.82 kcal/mol
Thermal vibrational correction   ...      0.00973757 Eh       6.11 kcal/mol
Thermal rotational correction    ...      0.00141627 Eh       0.89 kcal/mol
Thermal translational correction ...      0.00141627 Eh       0.89 kcal/mol
-----------------------------------------------------------------------
Total thermal energy                   -976.25624610 Eh


Summary of corrections to the electronic energy:
(perhaps to be used in another calculation)
Total thermal correction                  0.01257011 Eh       7.89 kcal/mol
Non-thermal (ZPE) correction              0.08416935 Eh      52.82 kcal/mol
-----------------------------------------------------------------------
Total correction                          0.09673946 Eh      60.70 kcal/mol


--------
ENTHALPY
--------

The enthalpy is H = U + kB*T
                kB is Boltzmann's constant
Total thermal energy              ...   -976.25624610 Eh 
Thermal Enthalpy correction       ...      0.00094421 Eh       0.59 kcal/mol
-----------------------------------------------------------------------
Total Enthalpy                    ...   -976.25530189 Eh


Note: Only C1 symmetry has been detected, increase convergence thresholds 
      if your molecule has a higher symmetry. Symmetry factor of 1.0 is   
      used for the rotational entropy correction. 
 

Note: Rotational entropy computed according to Herzberg 
Infrared and Raman Spectra, Chapter V,1, Van Nostrand Reinhold, 1945 
Point Group:  C1, Symmetry Number:   1  
Rotational constants in cm-1:     0.054561     0.049154     0.031856 

Vibrational entropy computed according to the QRRHO of S. Grimme
Chem.Eur.J. 2012 18 9955 using a reference frequency of 100.0 cm-1


-------
ENTROPY
-------

The entropy contributions are T*S = T*(S(el)+S(vib)+S(rot)+S(trans))
     S(el)   - electronic entropy
     S(vib)  - vibrational entropy
     S(rot)  - rotational entropy
     S(trans)- translational entropy
The entropies will be listed as multiplied by the temperature to get
units of energy

Electronic entropy                ...      0.00000000 Eh      0.00 kcal/mol
Vibrational entropy               ...      0.01753695 Eh     11.00 kcal/mol
Rotational entropy                ...      0.01393324 Eh      8.74 kcal/mol
Translational entropy             ...      0.01912974 Eh     12.00 kcal/mol
-----------------------------------------------------------------------
Final entropy term                ...      0.05059994 Eh     31.75 kcal/mol

In case the symmetry of your molecule has not been determined correctly
or in case you have a reason to use a different symmetry number we print 
out the resulting rotational entropy values for sn=1,12:

 non-linear molecules -----------------------------------
|  sn= 1 | S(rot)=       0.01393324 Eh      8.74 kcal/mol|
|  sn= 2 | S(rot)=       0.01327879 Eh      8.33 kcal/mol|
|  sn= 3 | S(rot)=       0.01289595 Eh      8.09 kcal/mol|
|  sn= 4 | S(rot)=       0.01262433 Eh      7.92 kcal/mol|
|  sn= 5 | S(rot)=       0.01241364 Eh      7.79 kcal/mol|
|  sn= 6 | S(rot)=       0.01224150 Eh      7.68 kcal/mol|
|  sn= 7 | S(rot)=       0.01209595 Eh      7.59 kcal/mol|
|  sn= 8 | S(rot)=       0.01196987 Eh      7.51 kcal/mol|
|  sn= 9 | S(rot)=       0.01185866 Eh      7.44 kcal/mol|
|  sn=10 | S(rot)=       0.01175919 Eh      7.38 kcal/mol|
|  sn=11 | S(rot)=       0.01166920 Eh      7.32 kcal/mol|
|  sn=12 | S(rot)=       0.01158704 Eh      7.27 kcal/mol|
 linear molecules ---------------------------------------
|  Dinfh | S(rot)=       0.00857996 Eh      5.38 kcal/mol|
|  Cinfv | S(rot)=       0.00923442 Eh      5.79 kcal/mol|
 --------------------------------------------------------


-------------------
GIBBS FREE ENERGY
-------------------

The Gibbs free energy is G = H - T*S

Total enthalpy                    ...   -976.25530189 Eh 
Total entropy correction          ...     -0.05059994 Eh    -31.75 kcal/mol
-----------------------------------------------------------------------
Final Gibbs free energy         ...   -976.30590183 Eh

For completeness - the Gibbs free energy minus the electronic energy
G-E(el)                           ...      0.04708373 Eh     29.55 kcal/mol


Maximum memory used throughout the entire PROP-calculation: 33.4 MB

--------------------------------
SUGGESTED CITATIONS FOR THIS RUN
--------------------------------

Below you find a list of papers that are relevant to this ORCA run
We neither can nor want to force you to cite these papers, but we appreciate if you do
You receive ORCA, which is the product of decades of hard work by many enthusiastic individuals, for free
The only thing we kindly ask in return is that you cite our papers,
We deeply appreciate it, if you show your appreciation for ORCA by not just citing the generic ORCA reference.

Please note that relegating all ORCA citations to the supporting information does *not* help us.
SI sections are not indexed - citations you put there will not count into any citation statistics
But we need these citations in order to attract the funding resources that allow us to do what we are doing

Therefore, if you are a happy ORCA user, please consider citing a few of the papers listed below in the main body of your paper

In addition to the list printed below, the program has created the file run.bibtex that contains the list in bibtex format
You can import this file easily into all common literature databanks and citation aid programs


List of essential papers. We consider these as the minimum necessary citations

  1. Neese, F.
     Software update: the ORCA program system, version 6.0
     WIRES Comput. Molec. Sci. 2025 15(1), e70019
     doi.org/10.1002/wcms.7019

List of papers to cite with high priority. The work reported in these papers was absolutely
necessary for this run to complete.
Our perspective: the developers of density functionals and basis sets usually get cited in chemistry papers
Good! But without the algorithms to do something with them, the functionals or basis sets would not do anything.
Hence, in our opinion, the algorithm design and method developments papers are equally worthy of getting cited

  1. Neese, F.
     An improvement of the resolution of the identity approximation for the formation of the Coulomb matrix
     J. Comp. Chem. 2003 24(14), 1740-1747
     doi.org/10.1002/jcc.10318
  2. Grimme, S.; Antony, J.; Ehrlich, S.; Krieg, H.
     A consistent and accurate ab initio parametrization of density functional dispersion correction (DFT-D) for the 94 elements H-Pu
     J. Chem. Phys. 2010 132 , 154104
     doi.org/10.1063/1.3382344
  3. Grimme, S.; Ehrlich, S.; Goerigk, L.
     Effect of the damping function in dispersion corrected density functional theory
     J. Comput. Chem. 2011 32(7), 1456-1465
     doi.org/10.1002/jcc.21759
  4. Bykov, D.; Petrenko, T.; Izsak, R.; Kossmann, S.; Becker, U.; Valeev, E.; Neese, F.
     Efficient implementation of the analytic second derivatives of Hartree-Fock and hybrid DFT energies: a detailed analysis of different approximations
     Molec. Phys. 2015 113 , 1961-1977
     doi.org/10.1080/00268976.2015.1025114
  5. Garcia-Rates, M.; Neese, F.
     Efficient implementation of the analytical second derivatives of hartree-fock and hybrid DFT energies within the framework of the conductor-like polarizable continuum model
     J. Comput. Chem. 2019 40 , 1816-1828
     doi.org/10.1002/jcc.25833
  6. Garcia-Rates, M.; Neese, F.
     Effect of the Solute Cavity on the Solvation Energy and its Derivatives within the Framework of the Gaussian Charge Scheme
     J. Comput. Chem. 2020 41 , 922-939
     doi.org/10.1002/jcc.26139
  7. Neese, F.
     The SHARK Integral Generation and Digestion System
     J. Comp. Chem. 2022 44(3), 381
     doi.org/10.1002/jcc.26942

List of suggested additional citations. These are papers that are important in the 'surrounding' of 
of this run, or papers that preceded the highly important papers. If you like your results we are grateful for a citation.

  1. Neese, F.
     The ORCA program system
     WIRES Comput. Molec. Sci. 2012 2(1), 73-78
     doi.org/10.1002/wcms.81
  2. Neese, F.
     Software update: the ORCA program system, version 4.0
     WIRES Comput. Molec. Sci. 2018 8(1), 1-6
     doi.org/10.1002/wcms.1327
  3. Neese, F.; Wennmohs, F.; Becker, U.; Riplinger, C.
     The ORCA quantum chemistry program package
     J. Chem. Phys. 2020 152(22), 224108
     doi.org/10.1063/5.0004608
  4. Neese, F.
     Software update: The ORCA program system—Version 5.0
     WIRES Comput. Molec. Sci. 2022 12(1), e1606
     doi.org/10.1002/wcms.1606

List of optional additional citations

  1. Neese, F.
     Approximate second-order SCF convergence for spin unrestricted wavefunctions
     Chem. Phys. Lett. 2000 325(1-3), 93-98
     doi.org/10.1016/s0009-2614(00)00662-x

Timings for individual modules:

Sum of individual times          ...      385.250 sec (=   6.421 min)
Startup calculation              ...       97.812 sec (=   1.630 min)  25.4 %
SCF iterations                   ...       98.618 sec (=   1.644 min)  25.6 %
Property integrals               ...       64.451 sec (=   1.074 min)  16.7 %
SCF Response                     ...       27.903 sec (=   0.465 min)   7.2 %
Property calculations            ...       25.048 sec (=   0.417 min)   6.5 %
SCF Gradient evaluation          ...       71.067 sec (=   1.184 min)  18.4 %
Geometry relaxation              ...        0.351 sec (=   0.006 min)   0.1 %
                             ****ORCA TERMINATED NORMALLY****
TOTAL RUN TIME: 0 days 0 hours 6 minutes 41 seconds 624 msec
