
                                 *****************
                                 * O   R   C   A *
                                 *****************

                                            #,                                       
                                            ###                                      
                                            ####                                     
                                            #####                                    
                                            ######                                   
                                           ########,                                 
                                     ,,################,,,,,                         
                               ,,#################################,,                 
                          ,,##########################################,,             
                       ,#########################################, ''#####,          
                    ,#############################################,,   '####,        
                  ,##################################################,,,,####,       
                ,###########''''           ''''###############################       
              ,#####''   ,,,,##########,,,,          '''####'''          '####       
            ,##' ,,,,###########################,,,                        '##       
           ' ,,###''''                  '''############,,,                           
         ,,##''                                '''############,,,,        ,,,,,,###''
      ,#''                                            '''#######################'''  
     '                                                          ''''####''''         
             ,#######,   #######,   ,#######,      ##                                
            ,#'     '#,  ##    ##  ,#'     '#,    #''#        ,####,    ,#,          
            ##       ##  ##   ,#'  ##            #'  '#       #'       ,# #          
            ##       ##  #######   ##           ,######,      #####,      #          
            '#,     ,#'  ##    ##  '#,     ,#' ,#      #,     #,   #      #          
             '#######'   ##     ##  '#######'  #'      '#     '####' #    #          



                #########################################################
                #                        -***-                          #
                #          Department of theory and spectroscopy        #
                #                                                       #
                #                      Frank Neese                      #
                #                                                       #
                #     Directorship, Architecture, Infrastructure        #
                #                    SHARK, DRIVERS                     #
                #        Core code/Algorithms in most modules           #
                #                                                       #
                #        Max Planck Institute fuer Kohlenforschung      #
                #                Kaiser Wilhelm Platz 1                 #
                #                 D-45470 Muelheim/Ruhr                 #
                #                      Germany                          #
                #                                                       #
                #                  All rights reserved                  #
                #                        -***-                          #
                #########################################################


                         Program Version 6.1.0  -  RELEASE   -
                                (GIT: $679e74b$)
                          ($2025-06-10 18:02:51 +0200$)


 With contributions from (in alphabetic order):
[Max-Planck-Institut fuer Kohlenforschung]                               
  Daniel Aravena         : Magnetic Suceptibility                        
  Michael Atanasov       : Ab Initio Ligand Field Theory (pilot matlab implementation)
  Alexander A. Auer      : GIAO ZORA, VPT2 properties, NMR spectrum      
  Ute Becker             : All parallelization in ORCA, NUMFREQ, NUMCALC 
  Giovanni Bistoni       : ED, misc. LED, open-shell LED, HFLD           
  Dmytro Bykov           : pre 5.0 version of the SCF Hessian            
  Marcos Casanova-Páez   : Triplet and SCS-CIS(D). UHF-(DLPNO)-IP/EA/STEOM-CCSD. UHF-CVS-IP/STEOM-CCSD   
  Vijay G. Chilkuri      : MRCI spin determinant printing, contributions to CSF-ICE 
  Pauline Colinet        : FMM embedding                                 
  Dipayan Datta          : RHF DLPNO-CCSD density                        
  Achintya Kumar Dutta   : EOM-CC, STEOM-CC                              
  Nicolas Foglia         : Exact transition moments, OPA infrastructure, MCD improvements    
  Dmitry Ganyushin       : Spin-Orbit,Spin-Spin,Magnetic field MRCI      
  Miquel Garcia-Rates    : C-PCM and meta-GGA Hessian, CCSD/C-PCM, Gaussian charge scheme 
  Tiago L. C. Gouveia    : GS-ROHF, GS-ROCIS                             
  Yang Guo               : DLPNO-NEVPT2, F12-NEVPT2, CIM, IAO-localization        
  Andreas Hansen         : Spin unrestricted coupled pair/coupled cluster methods 
  Ingolf Harden          : AUTO-CI MPn and infrastructure                
  Benjamin Helmich-Paris : MC-RPA, TRAH-(SCF,CASSCF), AVAS, COSX integrals, SCF dyn. polar., MC-PDFT, srDFT 
  Lee Huntington         : MR-EOM, pCC                                   
  Robert Izsak           : Overlap fitted RIJCOSX, COSX-SCS-MP3, EOM     
  Riya Kayal             : Wick's Theorem for AUTO-CI, AUTO-CI UHF-CCSDT 
  Emily Kempfer          : AUTO-CI RHF CISDT and CCSDT, approximate NEVPT4
  Christian Kollmar      : KDIIS, OOCD, Brueckner-CCSD(T), CCSD density, CASPT2, CASPT2-K, improved NEVPT2 
  Axel Koslowski         : Symmetry handling                             
  Simone Kossmann        : meta-GGA functionals, TD-DFT gradient, OOMP2, (MP2 Hessian; deprecated post 5.0) 
  Lucas Lang             : DCDCAS, Hyperfine gauge corrections, ICE-SOC+SSC
  Marvin Lechner         : AUTO-CI (C++ implementation), FIC-MRCC        
  Spencer Leger          : CASSCF response                               
  Dagmar Lenk            : GEPOL surface, SMD, ORCA-2-JSON               
  Dimitrios Liakos       : Extrapolation schemes; Compound Job, Property file
  Dimitrios Manganas     : Further ROCIS development; embedding schemes. LFT, Crystal Embedding 
  Dimitrios Pantazis     : SARC Basis sets                               
  Anastasios Papadopoulos: AUTO-CI, single reference methods and gradients 
  Taras Petrenko         : pre 6.0 DFT Hessian and TD-DFT gradient,  ECA, NRVS 
  Petra Pikulova         : Analytic Raman intensities                    
  Peter Pinski           : DLPNO-MP2, DLPNO-MP2 Gradient                 
  Shashank Vittal Rao    : ES-AILFT, MagRelax                            
  Christoph Reimann      : Effective Core Potentials                     
  Marius Retegan         : Local ZFS, SOC                                
  Christoph Riplinger    : Optimizer, TS searches, QM/MM, DLPNO-CCSD(T), (RO)-DLPNO pert. Triples 
  Michael Roemelt        : Original ROCIS implementation, recursive CI coupling coefficients
  Masaaki Saitow         : Open-shell DLPNO-CCSD energy and density      
  Barbara Sandhoefer     : DKH picture change effects                    
  Yorick L. A. Schmerwitz: GMF and freeze-and-release deltaSCF, NEB S-IDPP initial path                    
  Kantharuban Sivalingam : CASSCF convergence/infrastructure, NEVPT2, NEVPT3, NEVPT4(SD), FIC-MRCI and CEPA variants
  Bernardo de Souza      : ESD, SOC TD-DFT                               
  Georgi L. Stoychev     : AutoAux, RI-MP2 NMR, DLPNO-MP2 response, X2C  
  Van Anh Tran           : RI-MP2 g-tensors                              
  Willem Van den Heuvel  : Paramagnetic NMR                              
  Zikuan Wang            : NOTCH, Electric field optimization            
  Frank Wennmohs         : Technical directorship and infrastructure     
  Hang Xu                : AUTO-CI-Response properties                   
                                                                         
[FACCTs GmbH]                                                            
  Markus Bursch, Nicolas Foglia, Miquel Garcia-Rates, Ingolf Harden, Hagen Neugebauer, Anastasios Papadopoulos, 
  Christoph Riplinger, Bernardo de Souza, Georgi L. Stoychev                                                    
                                                                 
  APM, various basis sets, CI-OPT, improved COSX, DLPNO-Multilevel,           
  DOCKER, DRACO, updates on ESD, Fragmentator, GOAT, IRC, LR-CPCM, L-BFGS, MBIS, meta-GGA TD-DFT gradient, ML-optimized integration grids, 
  MM, NACMEs, nearIR, NEB, NEB-TS, NL-DFT gradient (VV10), 2- and 3-layer-ONIOM, interface openCOSMO-RS, QMMM,   
  Crystal-QMMM, RESP, rigid body optimization, SF, symmetry and pop. for TD-DFT, various functionals, SOLVATOR                                   
                                                                         
[Other institutions]                                                     
  V. Asgeirsson          : NEB                                           
  Christoph Bannwarth    : sTDA-DFT, sTD-DFT, PBEh-3c, B97-3c, D3        
  Giovanni Bistoni       : ETS/NOCV, ADLD/ADEX, COVALED                  
  Martin Brehm           : Molecular dynamics                            
  Ronald Cardenas        : ETS/NOCV                                      
  Martina Colucci        : COVALED                                       
  Sebastian Ehlert       : rSCAN, r2SCAN, r2SCAN-3c, D4, dhf basis sets  
  Marvin Friede          : D4 for Fr, Ra, Ac-Lr                          
  Lars Goerigk           : TD-DFT with DH, B97 family of functionals     
  Stefan Grimme          : VdW corrections, initial TS optimization, DFT functionals, gCP, sTDA/sTD-DF 
  Waldemar Hujo          : DFT-NL                                        
  H. Jonsson             : NEB                                           
  Holger Kruse           : gCP                                           
  Marcel Mueller         : wB97X-3c, vDZP basis set                      
  Hagen Neugebauer       : wr2SCAN, Native XTB                           
  Gianluca Regni         : ADLD/ADEX                                     
  Tobias Risthaus        : pre 6.0 range-separated hybrid DFT and stability analysis
  Lukas Wittmann         : regularized MP2, r2SCAN double-hybrids, wr2SCAN        
                                                                         
We gratefully acknowledge several colleagues who have allowed us to      
interface, adapt or use parts of their codes:                            
  Ed Valeev, F. Pavosevic, A. Kumar             : LibInt (2-el integral package), F12 methods 
  Garnet Chan, S. Sharma, J. Yang, R. Olivares  : DMRG                   
  Ulf Ekstrom                                   : XCFun DFT Library      
  Mihaly Kallay                                 : mrcc  (arbitrary order and MRCC methods)
  Frank Weinhold                                : gennbo (NPA and NBO analysis)           
  Simon Mueller                                 : openCOSMO-RS                            
  Christopher J. Cramer and Donald G. Truhlar   : smd solvation model                     
  S Lehtola, MJT Oliveira, MAL Marques          : LibXC Library                           
  Liviu Ungur et al                             : ANISO software                          


 Your calculation uses the libint2 library for the computation of 2-el integrals
 For citations please refer to: http://libint.valeyev.net

 Your ORCA version has been built with support for libXC version: 7.0.0
 For citations please refer to: https://libxc.gitlab.io

 This ORCA versions uses:
   CBLAS   interface :  Fast vector & matrix operations
   LAPACKE interface :  Fast linear algebra routines
   SCALAPACK package :  Parallel linear algebra routines
   Shared memory     :  Shared parallel matrices
   BLAS/LAPACK       :  OpenBLAS 0.3.29  USE64BITINT DYNAMIC_ARCH NO_AFFINITY Zen SINGLE_THREADED
        Core in use  :  Zen
   Copyright (c) 2011-2014, The OpenBLAS Project


  ***********************************
  * Starting time: Fri Sep  5 17:28:20 2025
  * Host name:     gadolinium01
  * Process ID:    1139806
  * Working dir.:  /local/scratch/mehlhorn/62394
  ***********************************



***************************************
The coordinates will be read from file: run.xyz
***************************************


Your calculation utilizes the atom-pairwise dispersion correction
with the Becke-Johnson damping scheme (D3BJ)


Warning: RI is on but no J-basis has been assigned. Assigning Def2/J (nothing to worry about!)
================================================================================

cite the ECPs for Zr [Def2-ECP] as follows:
Ce-Yb(ecp-28): M. Dolg, H. Stoll, H.Preuss, J. Chem. Phys., 1989, 90, 1730-1734.
Y-Cd(ecp-28), Hf-Hg(ecp-46): D. Andrae,U. Haeussermann, M. Dolg, H. Stoll, H. Preuss, Theor. Chim. Acta, 1990, 77, 123-141.
In-Sb(ecp-28), Tl-Bi(ecp-46): B. Metz, H. Stoll, M. Dolg, J. Chem. Phys., 2000, 113, 2563-2569.
Te-Xe(ecp-28), Po-Rn(ecp-46): K. A. Peterson, D. Figgen, E. Goll, H. Stoll, M. Dolg, J. Chem. Phys., 2003, 119, 11113-11123.
Rb(ecp-28), Cs(ecp-46): T. Leininger, A. Nicklass, W. Kuechle, H. Stoll, M. Dolg, A. Bergner, Chem. Phys. Lett., 1996, 255, 274-280.
Sr(ecp-28), Ba(ecp-46): M. Kaupp, P. V. Schleyer, H. Stoll and H. Preuss, J. Chem. Phys., 1991, 94, 1360-1366.
La(ecp-46): M. Dolg, H. Stoll, A. Savin, H. Preuss, Theor. Chim. Acta, 1989, 75, 173-194.
Lu(ecp-28): X. Cao, M. Dolg, J. Chem. Phys., 2001, 115, 7348-7355.

ECP parameters for Zr [Def2-ECP] have been obtained from:
TURBOMOLE (7.0.2)

----- Orbital basis set information -----
Your calculation utilizes the basis: def2-TZVP
   F. Weigend and R. Ahlrichs, Phys. Chem. Chem. Phys. 7, 3297 (2005).

----- AuxJ basis set information -----
Your calculation utilizes the auxiliary basis: def2/J
   H-Rn: F. Weigend, Phys. Chem. Chem. Phys. 8, 1057 (2006).
   Fr-Lr: K. Eichkorn, F. Weigend, O. Treutler, R. Ahlrichs; Theor. Chem. Acc. 97, 119 (1997).

================================================================================
                                        WARNINGS
                       Please study these warnings very carefully!
================================================================================


================================================================================
                                       INPUT FILE
================================================================================
NAME = run_f.inp
|  1> # Geometry optimization for (AlH3)n cluster
|  2> 
|  3> %pal nprocs 64 end
|  4> 
|  5> %cpcm
|  6> 	epsilon 1.95778548766667
|  7> end
|  8> 
|  9> ! PBE def2-TZVP
| 10> ! RKS	# closed shell for AlH3
| 11> ! D3    #  dispersion correction
| 12> ! Freq 	# Frequency analysis to check the stabiltity of the structures
| 13> 
| 14> ! NoPop # population analysis not necessary	
| 15> 
| 16> ! DEFGRID3
| 17> ! TightSCF
| 18> 
| 19> ! SmallPrint
| 20> 
| 21> 
| 22> * xyzFile 0 1 run.xyz
| 23> 
| 24>                          ****END OF INPUT****
================================================================================

                       ****************************
                       * Single Point Calculation *
                       ****************************

---------------------------------
CARTESIAN COORDINATES (ANGSTROEM)
---------------------------------
  Zr     0.113025    1.960911    1.200127
  Zr    -0.076799   -2.438915   -1.157180
  Zr     1.500836   -1.388890    1.718642
  Zr    -1.531041    1.013183   -1.654817
  Zr     1.791020    0.375740   -1.443894
  Zr    -1.882456   -0.797269    1.598523
  O     -1.569521    0.840361    0.382129
  O      1.674461   -1.314177   -0.314699
  O     -0.426718   -2.013403    0.813704
  O      0.392628    1.765054   -0.881310
  O     -0.119153   -0.502040   -1.844043
  O      0.096788    0.074964    2.013460
  O     -1.294011    2.470577    2.818963
  O     -1.009714    3.746599    0.510073
  O      1.482438    2.053969    3.021042
  O      1.843496    3.498210    0.816976
  O     -1.886698   -3.611359   -0.653044
  O     -1.427827   -2.492542   -2.938568
  O      0.980555   -4.212164   -0.402578
  O      1.390255   -2.890233   -2.742256
  O      0.673217   -2.292993    3.547404
  O      2.451428   -0.001895    3.145858
  O      1.942722   -3.553629    1.534459
  O      3.777130   -1.438560    1.383003
  O     -3.709801    0.886335   -1.173788
  O     -2.031326    3.141244   -1.417220
  O     -2.458077   -0.470949   -3.019354
  O     -0.753586    1.826215   -3.530041
  O      1.457792    1.359200   -3.432713
  O      2.500975    1.409159    0.458362
  O      2.647576   -1.027924   -2.957847
  O      4.211881   -0.469947   -0.600716
  O     -3.870539   -0.361878    0.715172
  O     -2.575740    0.634366    3.118247
  O     -2.927693   -2.729510    1.158632
  O     -1.541161   -1.843347    3.511240
  C     -2.208773    1.814891    3.392438
  C     -1.697635    3.976746   -0.524419
  C      2.166780    1.157275    3.586215
  C      2.732306    2.688700    0.492243
  C     -2.678648   -3.655703    0.337716
  C     -2.150535   -1.611311   -3.483361
  C      1.654224   -4.410014    0.651675
  C      2.343793   -2.224562   -3.239628
  C     -0.494229   -2.321463    4.034785
  C      4.551565   -1.105814    0.464162
  C     -4.331190    0.402846   -0.185950
  C      0.432412    1.846968   -3.981641
  H     -2.580007   -1.869504   -4.471064
  H      2.028419   -5.438567    0.813902
  H      2.589116    1.411913    4.578430
  H     -2.051774    5.015774   -0.664087
  H      2.972350   -2.729378   -3.996609
  H      0.577091    2.342430   -4.960667
  H      3.747861    3.031652    0.224940
  H      5.622143   -1.368854    0.563838
  H     -3.223988   -4.608158    0.485305
  H     -5.405146    0.661067   -0.104748
  H     -2.744604    2.323263    4.215932
  H     -0.609682   -2.815328    5.017970
  Al     5.874122   -0.607347   -4.237533
  Al     5.021728    0.496948   -1.995617
  H      5.130647    0.849915   -3.791635
  H      3.565988    1.324240   -2.079901
  H      5.708174   -1.043095   -2.585334
  H      7.422949   -0.352000   -4.514645
  H      4.926782   -1.531019   -5.127062
  H      6.210569    1.369185   -1.391240

----------------------------
CARTESIAN COORDINATES (A.U.)
----------------------------
  NO LB      ZA    FRAG     MASS         X           Y           Z
   0 Zr   12.0000*   0    91.220    0.213586    3.705584    2.267912
   1 Zr   12.0000*   0    91.220   -0.145129   -4.608881   -2.186754
   2 Zr   12.0000*   0    91.220    2.836169   -2.624622    3.247763
   3 Zr   12.0000*   0    91.220   -2.893249    1.914638   -3.127152
   4 Zr   12.0000*   0    91.220    3.384538    0.710046   -2.728565
   5 Zr   12.0000*   0    91.220   -3.557326   -1.506620    3.020771
   6 O     8.0000    0    15.999   -2.965964    1.588051    0.722119
   7 O     8.0000    0    15.999    3.164273   -2.483436   -0.594695
   8 O     8.0000    0    15.999   -0.806380   -3.804780    1.537678
   9 O     8.0000    0    15.999    0.741960    3.335469   -1.665434
  10 O     8.0000    0    15.999   -0.225166   -0.948718   -3.484735
  11 O     8.0000    0    15.999    0.182903    0.141662    3.804889
  12 O     8.0000    0    15.999   -2.445327    4.668714    5.327068
  13 O     8.0000    0    15.999   -1.908083    7.080045    0.963899
  14 O     8.0000    0    15.999    2.801401    3.881439    5.708942
  15 O     8.0000    0    15.999    3.483703    6.610659    1.543861
  16 O     8.0000    0    15.999   -3.565343   -6.824480   -1.234074
  17 O     8.0000    0    15.999   -2.698202   -4.710221   -5.553089
  18 O     8.0000    0    15.999    1.852981   -7.959837   -0.760762
  19 O     8.0000    0    15.999    2.627202   -5.461749   -5.182113
  20 O     8.0000    0    15.999    1.272196   -4.333128    6.703622
  21 O     8.0000    0    15.999    4.632528   -0.003581    5.944810
  22 O     8.0000    0    15.999    3.671213   -6.715386    2.899706
  23 O     8.0000    0    15.999    7.137741   -2.718484    2.613497
  24 O     8.0000    0    15.999   -7.010509    1.674930   -2.218138
  25 O     8.0000    0    15.999   -3.838650    5.936091   -2.678158
  26 O     8.0000    0    15.999   -4.645092   -0.889964   -5.705752
  27 O     8.0000    0    15.999   -1.424071    3.451046   -6.670810
  28 O     8.0000    0    15.999    2.754827    2.568516   -6.486888
  29 O     8.0000    0    15.999    4.726158    2.662925    0.866179
  30 O     8.0000    0    15.999    5.003193   -1.942495   -5.589521
  31 O     8.0000    0    15.999    7.959302   -0.888072   -1.135189
  32 O     8.0000    0    15.999   -7.314258   -0.683850    1.351478
  33 O     8.0000    0    15.999   -4.867443    1.198778    5.892632
  34 O     8.0000    0    15.999   -5.532538   -5.158026    2.189497
  35 O     8.0000    0    15.999   -2.912372   -3.483421    6.635282
  36 C     6.0000    0    12.011   -4.173976    3.429647    6.410779
  37 C     6.0000    0    12.011   -3.208066    7.514961   -0.991008
  38 C     6.0000    0    12.011    4.094622    2.186933    6.776965
  39 C     6.0000    0    12.011    5.163311    5.080906    0.930204
  40 C     6.0000    0    12.011   -5.061912   -6.908278    0.638191
  41 C     6.0000    0    12.011   -4.063922   -3.044937   -6.582598
  42 C     6.0000    0    12.011    3.126031   -8.333719    1.231486
  43 C     6.0000    0    12.011    4.429128   -4.203813   -6.122010
  44 C     6.0000    0    12.011   -0.933958   -4.386928    7.624638
  45 C     6.0000    0    12.011    8.601211   -2.089685    0.877139
  46 C     6.0000    0    12.011   -8.184763    0.761268   -0.351395
  47 C     6.0000    0    12.011    0.817139    3.490264   -7.524212
  48 H     1.0000    0     1.008   -4.875506   -3.532850   -8.449087
  49 H     1.0000    0     1.008    3.833157  -10.277401    1.538052
  50 H     1.0000    0     1.008    4.892721    2.668129    8.651978
  51 H     1.0000    0     1.008   -3.877290    9.478439   -1.254942
  52 H     1.0000    0     1.008    5.616928   -5.157776   -7.552496
  53 H     1.0000    0     1.008    1.090544    4.426550   -9.374301
  54 H     1.0000    0     1.008    7.082431    5.728991    0.425075
  55 H     1.0000    0     1.008   10.624311   -2.586758    1.065499
  56 H     1.0000    0     1.008   -6.092454   -8.708156    0.917094
  57 H     1.0000    0     1.008  -10.214246    1.249235   -0.197945
  58 H     1.0000    0     1.008   -5.186551    4.390331    7.966958
  59 H     1.0000    0     1.008   -1.152132   -5.320198    9.482589
  60 Al   13.0000    0    26.982   11.100482   -1.147720   -8.007777
  61 Al   13.0000    0    26.982    9.489690    0.939095   -3.771170
  62 H     1.0000    0     1.008    9.695518    1.606106   -7.165152
  63 H     1.0000    0     1.008    6.738741    2.502452   -3.930443
  64 H     1.0000    0     1.008   10.786885   -1.971165   -4.885572
  65 H     1.0000    0     1.008   14.027340   -0.665184   -8.531443
  66 H     1.0000    0     1.008    9.310270   -2.893206   -9.688742
  67 H     1.0000    0     1.008   11.736275    2.587385   -2.629062
* core charge reduced due to ECP

--------------------------------
INTERNAL COORDINATES (ANGSTROEM)
--------------------------------
 Zr     0   0   0     0.000000000000     0.00000000     0.00000000
 Zr     1   0   0     4.995137198882     0.00000000     0.00000000
 Zr     2   1   0     3.444102291596    47.15618510     0.00000000
 Zr     1   2   3     3.428096938572    49.09893359   180.86302531
 Zr     4   1   2     3.389235246366    61.97137112   307.56104043
 Zr     1   2   3     3.427567273179    47.46248393   274.75335791
 O      4   1   2     2.044626486333    37.12832300    73.83108945
 O      5   4   1     2.035801683384    97.73103956    80.67224769
 O      2   1   3     2.046433480947    50.86508733    50.72081995
 O      5   4   1     2.049925695503    38.82763361   325.27001865
 O      2   1   3     2.055494632097    47.81618791   212.58047614
 O      3   2   1     2.049667576369    91.37872961    26.74827865
 O      1   2   3     2.204572077767   121.72985029   273.09323091
 O      1   2   3     2.219323942611   122.87160369   182.70260935
 O      1   2   3     2.280281522985   115.82471767     4.33360167
 O      1   2   3     2.346193984836   121.87733057    86.11851125
 O      2   1   3     2.214613885658   112.95118349    96.84923847
 O      2   1   3     2.236402022299   114.83350534   175.71999327
 O      2   1   3     2.198144014687   122.02410326   359.88432988
 O      2   1   3     2.206445470310   119.59863109   268.04255852
 O      3   2   1     2.201527721481   113.34151030   112.11359248
 O      3   2   1     2.205521812093   158.35629517   334.27552874
 O      3   2   1     2.217043514085    73.99310353   177.59154850
 O      3   2   1     2.301441753449   108.94789942   246.99232116
 O      4   1   2     2.234832324549   107.69737765   107.25342555
 O      4   1   2     2.198949948051    75.61591956   180.52313073
 O      4   1   2     2.219009111346   153.81555185    22.72693576
 O      4   1   2     2.186760250266   116.15931117   250.63356061
 O      5   4   1     2.243576911577    73.54920372   229.01717035
 O     16   1   2     2.219237299399    68.16775017   332.27207900
 O      5   4   1     2.235176443038   116.84507374   166.59189879
 O     24   3   2     2.249968834510   108.08358094    46.64705705
 O      6   1   2     2.218636761247   108.51126485   256.29391185
 O      6   1   2     2.199950329027    74.93547159   180.03928139
 O      6   1   2     2.240441709708   160.52622612   341.27635082
 O      6   1   2     2.206637172937   113.09046160   112.78734525
 C     13   1   2     1.263165857329   132.49835636     3.71721593
 C     14   1   2     1.263478375805   132.57713875   353.00133163
 C     15   1   2     1.261667667193   130.87823615   356.20499430
 C     16   1   2     1.245287805495    98.22587561   332.29412194
 C     35   6   1     1.262442237064   131.94126775    21.83106397
 C     18   2   1     1.263199423936   132.25483675     1.01749650
 C     23   3   2     1.263302900638   132.41046299     2.90632949
 C     20   2   1     1.264805325816   132.54038452   359.23099366
 C     36   6   1     1.264420572134   131.77649492   304.73967708
 C     24   3   2     1.246891481357   135.72651339    43.11854451
 C     25   4   1     1.263213785107   132.03721950   316.48121905
 C     29   5   4     1.261207437352   132.53966654     3.59000675
 H     42  18   2     1.107550313196   116.34875833   169.30569856
 H     43  23   3     1.106462494024   116.77406607   178.94882522
 H     39  15   1     1.108014958809   116.39482707   192.01786839
 H     38  14   1     1.106571080559   116.65542101   187.06311332
 H     44  20   2     1.105866990556   117.22150624   176.20201741
 H     48  29   5     1.106754159087   116.86335520   175.71315035
 H     40  16   1     1.104725305651   121.15929031   180.13324690
 H     46  24   3     1.106916342462   118.09478162   186.87128570
 H     41  35   6     1.107405326814   116.56342796   166.32498421
 H     47  25   4     1.107543765053   116.42918271   167.71368001
 H     37  13   1     1.106209846138   116.75664831   177.86145274
 H     45  36   6     1.106293502688   116.76777122   180.74549767
 Al    31   5   4     3.496438329455   121.73541051   144.99895495
 Al    32  24   3     1.880554811334   163.44154339   146.33621278
 H     61  31   5     1.695639325312    66.57888710   330.13412548
 H     62  32  24     1.676512806716    85.24310798   233.61765656
 H     61  31   5     1.716734844613    61.83751596    67.96894508
 H     61  31   5     1.594006836071   168.39275968    42.71201677
 H     61  31   5     1.594327991495    65.55536441   199.08582453
 H     62  32  24     1.593553710851   108.74629145   346.70864864

---------------------------
INTERNAL COORDINATES (A.U.)
---------------------------
 Zr     0   0   0     0.000000000000     0.00000000     0.00000000
 Zr     1   0   0     9.439441307249     0.00000000     0.00000000
 Zr     2   1   0     6.508410108326    47.15618510     0.00000000
 Zr     1   2   3     6.478164374435    49.09893359   180.86302531
 Zr     4   1   2     6.404726419066    61.97137112   307.56104043
 Zr     1   2   3     6.477163451900    47.46248393   274.75335791
 O      4   1   2     3.863784105331    37.12832300    73.83108945
 O      5   4   1     3.847107644571    97.73103956    80.67224769
 O      2   1   3     3.867198830277    50.86508733    50.72081995
 O      5   4   1     3.873798159389    38.82763361   325.27001865
 O      2   1   3     3.884321924409    47.81618791   212.58047614
 O      3   2   1     3.873310384915    91.37872961    26.74827865
 O      1   2   3     4.166037469470   121.72985029   273.09323091
 O      1   2   3     4.193914453988   122.87160369   182.70260935
 O      1   2   3     4.309107586683   115.82471767     4.33360167
 O      1   2   3     4.433664088394   121.87733057    86.11851125
 O      2   1   3     4.185013736272   112.95118349    96.84923847
 O      2   1   3     4.226187347493   114.83350534   175.71999327
 O      2   1   3     4.153890190676   122.02410326   359.88432988
 O      2   1   3     4.169577668317   119.59863109   268.04255852
 O      3   2   1     4.160284469834   113.34151030   112.11359248
 O      3   2   1     4.167832207246   158.35629517   334.27552874
 O      3   2   1     4.189605068607    73.99310353   177.59154850
 O      3   2   1     4.349094627189   108.94789942   246.99232116
 O      4   1   2     4.223221048632   107.69737765   107.25342555
 O      4   1   2     4.155413184017    75.61591956   180.52313073
 O      4   1   2     4.193319509121   153.81555185    22.72693576
 O      4   1   2     4.132377993548   116.15931117   250.63356061
 O      5   4   1     4.239745923270    73.54920372   229.01717035
 O     16   1   2     4.193750722047    68.16775017   332.27207900
 O      5   4   1     4.223871338335   116.84507374   166.59189879
 O     24   3   2     4.251824907081   108.08358094    46.64705705
 O      6   1   2     4.192615869407   108.51126485   256.29391185
 O      6   1   2     4.157303630091    74.93547159   180.03928139
 O      6   1   2     4.233821250363   160.52622612   341.27635082
 O      6   1   2     4.169939933782   113.09046160   112.78734525
 C     13   1   2     2.387037532071   132.49835636     3.71721593
 C     14   1   2     2.387628106402   132.57713875   353.00133163
 C     15   1   2     2.384206363018   130.87823615   356.20499430
 C     16   1   2     2.353252910297    98.22587561   332.29412194
 C     35   6   1     2.385670087946   131.94126775    21.83106397
 C     18   2   1     2.387100963767   132.25483675     1.01749650
 C     23   3   2     2.387296506393   132.41046299     2.90632949
 C     20   2   1     2.390135678516   132.54038452   359.23099366
 C     36   6   1     2.389408599429   131.77649492   304.73967708
 C     24   3   2     2.356283418484   135.72651339    43.11854451
 C     25   4   1     2.387128102445   132.03721950   316.48121905
 C     29   5   4     2.383336654660   132.53966654     3.59000675
 H     42  18   2     2.092966771478   116.34875833   169.30569856
 H     43  23   3     2.090911091161   116.77406607   178.94882522
 H     39  15   1     2.093844824436   116.39482707   192.01786839
 H     38  14   1     2.091116289974   116.65542101   187.06311332
 H     44  20   2     2.089785752695   117.22150624   176.20201741
 H     48  29   5     2.091462258253   116.86335520   175.71315035
 H     40  16   1     2.087628280894   121.15929031   180.13324690
 H     46  24   3     2.091768740415   118.09478162   186.87128570
 H     41  35   6     2.092692786923   116.56342796   166.32498421
 H     47  25   4     2.092954397281   116.42918271   167.71368001
 H     37  13   1     2.090433655848   116.75664831   177.86145274
 H     45  36   6     2.090591743816   116.76777122   180.74549767
 Al    31   5   4     6.607310886816   121.73541051   144.99895495
 Al    32  24   3     3.553733573250   163.44154339   146.33621278
 H     61  31   5     3.204293946746    66.57888710   330.13412548
 H     62  32  24     3.168150064704    85.24310798   233.61765656
 H     61  31   5     3.244158700878    61.83751596    67.96894508
 H     61  31   5     3.012236375772   168.39275968    42.71201677
 H     61  31   5     3.012843271571    65.55536441   199.08582453
 H     62  32  24     3.011380093202   108.74629145   346.70864864

---------------------
BASIS SET INFORMATION
---------------------
There are 5 groups of distinct atoms

 Group   1 Type Zr  : 7s7p5d1f contracted to 6s4p3d1f pattern {211111/4111/311/1}
 Group   2 Type O   : 11s6p2d1f contracted to 5s3p2d1f pattern {62111/411/11/1}
 Group   3 Type C   : 11s6p2d1f contracted to 5s3p2d1f pattern {62111/411/11/1}
 Group   4 Type H   : 5s1p contracted to 3s1p pattern {311/1}
 Group   5 Type Al  : 14s9p3d1f contracted to 5s5p2d1f pattern {73211/51111/21/1}

Atom   0Zr   basis set group =>   1
Atom   1Zr   basis set group =>   1
Atom   2Zr   basis set group =>   1
Atom   3Zr   basis set group =>   1
Atom   4Zr   basis set group =>   1
Atom   5Zr   basis set group =>   1
Atom   6O    basis set group =>   2
Atom   7O    basis set group =>   2
Atom   8O    basis set group =>   2
Atom   9O    basis set group =>   2
Atom  10O    basis set group =>   2
Atom  11O    basis set group =>   2
Atom  12O    basis set group =>   2
Atom  13O    basis set group =>   2
Atom  14O    basis set group =>   2
Atom  15O    basis set group =>   2
Atom  16O    basis set group =>   2
Atom  17O    basis set group =>   2
Atom  18O    basis set group =>   2
Atom  19O    basis set group =>   2
Atom  20O    basis set group =>   2
Atom  21O    basis set group =>   2
Atom  22O    basis set group =>   2
Atom  23O    basis set group =>   2
Atom  24O    basis set group =>   2
Atom  25O    basis set group =>   2
Atom  26O    basis set group =>   2
Atom  27O    basis set group =>   2
Atom  28O    basis set group =>   2
Atom  29O    basis set group =>   2
Atom  30O    basis set group =>   2
Atom  31O    basis set group =>   2
Atom  32O    basis set group =>   2
Atom  33O    basis set group =>   2
Atom  34O    basis set group =>   2
Atom  35O    basis set group =>   2
Atom  36C    basis set group =>   3
Atom  37C    basis set group =>   3
Atom  38C    basis set group =>   3
Atom  39C    basis set group =>   3
Atom  40C    basis set group =>   3
Atom  41C    basis set group =>   3
Atom  42C    basis set group =>   3
Atom  43C    basis set group =>   3
Atom  44C    basis set group =>   3
Atom  45C    basis set group =>   3
Atom  46C    basis set group =>   3
Atom  47C    basis set group =>   3
Atom  48H    basis set group =>   4
Atom  49H    basis set group =>   4
Atom  50H    basis set group =>   4
Atom  51H    basis set group =>   4
Atom  52H    basis set group =>   4
Atom  53H    basis set group =>   4
Atom  54H    basis set group =>   4
Atom  55H    basis set group =>   4
Atom  56H    basis set group =>   4
Atom  57H    basis set group =>   4
Atom  58H    basis set group =>   4
Atom  59H    basis set group =>   4
Atom  60Al   basis set group =>   5
Atom  61Al   basis set group =>   5
Atom  62H    basis set group =>   4
Atom  63H    basis set group =>   4
Atom  64H    basis set group =>   4
Atom  65H    basis set group =>   4
Atom  66H    basis set group =>   4
Atom  67H    basis set group =>   4
---------------------------------
AUXILIARY/J BASIS SET INFORMATION
---------------------------------
There are 5 groups of distinct atoms

 Group   1 Type Zr  : 11s5p5d3f3g contracted to 8s5p5d2f3g pattern {41111111/11111/11111/21/111}
 Group   2 Type O   : 12s5p4d2f1g contracted to 6s4p3d1f1g pattern {711111/2111/211/2/1}
 Group   3 Type C   : 12s5p4d2f1g contracted to 6s4p3d1f1g pattern {711111/2111/211/2/1}
 Group   4 Type H   : 5s2p1d contracted to 3s1p1d pattern {311/2/1}
 Group   5 Type Al  : 14s5p5d2f1g contracted to 8s4p3d1f1g pattern {71111111/2111/311/2/1}

Atom   0Zr   basis set group =>   1
Atom   1Zr   basis set group =>   1
Atom   2Zr   basis set group =>   1
Atom   3Zr   basis set group =>   1
Atom   4Zr   basis set group =>   1
Atom   5Zr   basis set group =>   1
Atom   6O    basis set group =>   2
Atom   7O    basis set group =>   2
Atom   8O    basis set group =>   2
Atom   9O    basis set group =>   2
Atom  10O    basis set group =>   2
Atom  11O    basis set group =>   2
Atom  12O    basis set group =>   2
Atom  13O    basis set group =>   2
Atom  14O    basis set group =>   2
Atom  15O    basis set group =>   2
Atom  16O    basis set group =>   2
Atom  17O    basis set group =>   2
Atom  18O    basis set group =>   2
Atom  19O    basis set group =>   2
Atom  20O    basis set group =>   2
Atom  21O    basis set group =>   2
Atom  22O    basis set group =>   2
Atom  23O    basis set group =>   2
Atom  24O    basis set group =>   2
Atom  25O    basis set group =>   2
Atom  26O    basis set group =>   2
Atom  27O    basis set group =>   2
Atom  28O    basis set group =>   2
Atom  29O    basis set group =>   2
Atom  30O    basis set group =>   2
Atom  31O    basis set group =>   2
Atom  32O    basis set group =>   2
Atom  33O    basis set group =>   2
Atom  34O    basis set group =>   2
Atom  35O    basis set group =>   2
Atom  36C    basis set group =>   3
Atom  37C    basis set group =>   3
Atom  38C    basis set group =>   3
Atom  39C    basis set group =>   3
Atom  40C    basis set group =>   3
Atom  41C    basis set group =>   3
Atom  42C    basis set group =>   3
Atom  43C    basis set group =>   3
Atom  44C    basis set group =>   3
Atom  45C    basis set group =>   3
Atom  46C    basis set group =>   3
Atom  47C    basis set group =>   3
Atom  48H    basis set group =>   4
Atom  49H    basis set group =>   4
Atom  50H    basis set group =>   4
Atom  51H    basis set group =>   4
Atom  52H    basis set group =>   4
Atom  53H    basis set group =>   4
Atom  54H    basis set group =>   4
Atom  55H    basis set group =>   4
Atom  56H    basis set group =>   4
Atom  57H    basis set group =>   4
Atom  58H    basis set group =>   4
Atom  59H    basis set group =>   4
Atom  60Al   basis set group =>   5
Atom  61Al   basis set group =>   5
Atom  62H    basis set group =>   4
Atom  63H    basis set group =>   4
Atom  64H    basis set group =>   4
Atom  65H    basis set group =>   4
Atom  66H    basis set group =>   4
Atom  67H    basis set group =>   4
-------------------------
ECP PARAMETER INFORMATION
-------------------------

 Group 1, Type Zr ECP Def2-ECP (replacing 28 core electrons, lmax=3)

Atom   0Zr   ECP group =>   1
Atom   1Zr   ECP group =>   1
Atom   2Zr   ECP group =>   1
Atom   3Zr   ECP group =>   1
Atom   4Zr   ECP group =>   1
Atom   5Zr   ECP group =>   1



           ************************************************************
           *        Program running with 64 parallel MPI-processes    *
           *              working on a common directory               *
           ************************************************************
------------------------------------------------------------------------------
                             ORCA STARTUP CALCULATIONS
                           -- RI-GTO INTEGRALS CHOSEN --
------------------------------------------------------------------------------
------------------------------------------------------------------------------
                   ___                                                        
                  /   \      - P O W E R E D   B Y -                         
                 /     \                                                     
                 |  |  |   _    _      __       _____    __    __             
                 |  |  |  | |  | |    /  \     |  _  \  |  |  /  |          
                  \  \/   | |  | |   /    \    | | | |  |  | /  /          
                 / \  \   | |__| |  /  /\  \   | |_| |  |  |/  /          
                |  |  |   |  __  | /  /__\  \  |    /   |      \           
                |  |  |   | |  | | |   __   |  |    \   |  |\   \          
                \     /   | |  | | |  |  |  |  | |\  \  |  | \   \       
                 \___/    |_|  |_| |__|  |__|  |_| \__\ |__|  \__/        
                                                                              
                      - O R C A' S   B I G   F R I E N D -                    
                                      &                                       
                       - I N T E G R A L  F E E D E R -                       
                                                                              
 v1 FN, 2020, v2 2021, v3 2022-2024                                           
------------------------------------------------------------------------------


----------------------
SHARK INTEGRAL PACKAGE
----------------------

Number of atoms                             ...     68
Number of basis functions                   ...   1724
Number of shells                            ...    644
Maximum angular momentum                    ...      3
Integral batch strategy                     ... SHARK/LIBINT Hybrid
RI-J (if used) integral strategy            ... SPLIT-RIJ (Revised 2003 algorithm where possible)
Printlevel                                  ...      1
Contraction scheme used                     ... SEGMENTED contraction
Prescreening option                         ... SCHWARTZ
   Thresh                                   ... 2.500e-11
   Tcut                                     ... 2.500e-12
   Tpresel                                  ... 2.500e-12 
Coulomb Range Separation                    ... NOT USED
Exchange Range Separation                   ... NOT USED
Multipole approximations                    ... NOT USED
Finite Nucleus Model                        ... NOT USED
CABS basis                                  ... NOT available
Auxiliary Coulomb fitting basis             ... AVAILABLE
   # of basis functions in Aux-J            ...   2892
   # of shells in Aux-J                     ...    892
   Maximum angular momentum in Aux-J        ...      4
Auxiliary J/K fitting basis                 ... NOT available
Auxiliary Correlation fitting basis         ... NOT available
Auxiliary 'external' fitting basis          ... NOT available

Checking pre-screening integrals            ... done (  0.0 sec) Dimension = 644
   => SHARK Basis and OBASIS are compatible. Storing Pre-screening
Shell pair information
Shell pair cut-off parameter TPreSel        ...   2.5e-12
Total number of shell pairs                 ...    207690
Shell pairs after pre-screening             ...    117505
Total number of primitive shell pairs       ...    631113
Primitive shell pairs kept                  ...    216504
          la=0 lb=0:  24473 shell pairs
          la=1 lb=0:  33532 shell pairs
          la=1 lb=1:  11063 shell pairs
          la=2 lb=0:  17678 shell pairs
          la=2 lb=1:  12082 shell pairs
          la=2 lb=2:   3168 shell pairs
          la=3 lb=0:   7008 shell pairs
          la=3 lb=1:   5233 shell pairs
          la=3 lb=2:   2758 shell pairs
          la=3 lb=3:    510 shell pairs

Checking whether 4 symmetric matrices of dimension 1724 fit in memory
:Max Core in MB      =   4096.00
 MB in use           =    142.91
 MB left             =   3953.09
 MB needed           =     45.38
 Data fit in memory  = YES
Calculating RI/J V-Matrix + Cholesky decomp.... done (  0.4 sec)
Calculating Nuclear repulsion               ... done (  0.0 sec) ENN=  10527.788665084125 Eh

Diagonalization of the overlap matrix:
Smallest eigenvalue                        ... 5.958e-05
Time for diagonalization                   ...    0.386 sec
Threshold for overlap eigenvalues          ... 1.000e-07
Number of eigenvalues below threshold      ... 0
Time for construction of square roots      ...    0.337 sec
Total time needed                          ...    0.761 sec

-------------------
DFT GRID GENERATION
-------------------

General Integration Accuracy     IntAcc      ... 4.959
Radial Grid Type                 RadialGrid  ... OptM3 with GC (2021)
Angular Grid (max. ang.)         AngularGrid ... 6 (Lebedev-590)
Angular grid pruning method      GridPruning ... 4 (adaptive)
Weight generation scheme         WeightScheme... mBecke (2022)
Basis function cutoff            BFCut       ... 1.0000e-11
Integration weight cutoff        WCut        ... 1.0000e-14
Partially contracted basis set               ... off
Rotationally invariant grid construction     ... off
Angular grids for H and He will be reduced by one unit

Total number of grid points                  ...   887408
Total number of batches                      ...    13901
Average number of points per batch           ...       63
Average number of grid points per atom       ...    13050
Grids setup in  14.3 sec
Initializing property integral containers    ... done (  0.0 sec)

SHARK setup successfully completed in  22.5 seconds

Maximum memory used throughout the entire STARTUP-calculation: 286.0 MB


           ************************************************************
           *        Program running with 64 parallel MPI-processes    *
           *              working on a common directory               *
           ************************************************************
-------------------------------------------------------------------------------
                                 ORCA GUESS
                   Start orbitals & Density for SCF / CASSCF
-------------------------------------------------------------------------------

------------
SCF SETTINGS
------------
Hamiltonian:
 Density Functional     Method          .... DFT(GTOs)
 Exchange Functional    Exchange        .... PBE
   PBE kappa parameter   XKappa         ....  0.804000
   PBE mue parameter    XMuePBE         ....  0.219520
 Correlation Functional Correlation     .... PBE
   PBE beta parameter  CBetaPBE         ....  0.066725
 LDA part of GGA corr.  LDAOpt          .... PW91-LDA
 Gradients option       PostSCFGGA      .... off
   NL short-range parameter             ....  6.400000
 RI-approximation to the Coulomb term is turned on
   Number of AuxJ basis functions       .... 2892


General Settings:
 Integral files         IntName         .... run_f
 Hartree-Fock type      HFTyp           .... RHF
 Total Charge           Charge          ....    0
 Multiplicity           Mult            ....    1
 Number of Electrons    NEL             ....  428
 Basis Dimension        Dim             .... 1724
 Nuclear Repulsion      ENuc            ....  10527.7886650841 Eh

Convergence Acceleration:
 AO-DIIS                CNVDIIS         .... on
   Start iteration      DIISMaxIt       ....    12
   Startup error        DIISStart       ....  0.200000
   # of expansion vecs  DIISMaxEq       ....     5
   Bias factor          DIISBfac        ....   1.050
   Max. coefficient     DIISMaxC        ....  10.000
 MO-DIIS                CNVKDIIS        .... off
 Trust-Rad. Augm. Hess. CNVTRAH         .... auto
   Auto Start mean grad. ratio tolernc. ....  1.125000
   Auto Start start iteration           ....    50
   Auto Start num. interpolation iter.  ....    10
   Max. Number of Micro iterations      ....    24
   Max. Number of Macro iterations      .... Maxiter - #DIIS iter
   Number of Davidson start vectors     ....     2
   Converg. threshold    (grad. norm)   ....   1.000e-05
   Grad. Scal. Fac. for Micro threshold ....   0.100
   Minimum threshold for Micro iter.    ....   1.000e-02
   NR start threshold (gradient norm)   ....   1.000e-04
   Initial trust radius                 ....   0.400
   Minimum AH scaling param. (alpha)    ....   1.000
   Maximum AH scaling param. (alpha)    .... 1000.000
   Quad. conv. algorithm                .... NR
   White noise on init. David. guess    .... on
   Maximum white noise                  ....   0.010
   Pseudo random numbers                .... off
   Inactive MOs                         .... canonical
   Orbital update algorithm             .... Taylor
   Preconditioner                       .... Diag
   Full preconditioner red. dimension   ....   250
 SOSCF                 CNVSOSCF           .... on
   Start iteration     SOSCFMaxIt         ....   150
   Startup grad/error  SOSCFStart         ....  0.003300
   Hessian update      SOSCFHessUp        .... L-BFGS
   Autom. constraints  SOSCFAutoConstrain .... off
 Level Shifting         CNVShift        .... on
   Level shift para.    LevelShift      ....    0.2500
   Turn off err/grad.   ShiftErr        ....    0.0010
 Zerner damping         CNVZerner       .... off
 Static damping         CNVDamp         .... on
   Fraction old density DampFac         ....    0.7000
   Max. Damping (<1)    DampMax         ....    0.9800
   Min. Damping (>=0)   DampMin         ....    0.0000
   Turn off err/grad.   DampErr         ....    0.1000

SCF Procedure:
 Maximum # iterations   MaxIter         ....   125
 SCF integral mode      SCFMode         .... Direct
   Integral package                     .... SHARK and LIBINT hybrid scheme
 Reset frequency        DirectResetFreq ....    20
 Integral Threshold     Thresh          ....  2.500e-11 Eh
 Primitive CutOff       TCut            ....  2.500e-12 Eh

Convergence Tolerance:
 Convergence Check Mode ConvCheckMode   .... Total+1el-Energy
 Convergence forced     ConvForced      .... 0
 Energy Change          TolE            ....  1.000e-08 Eh
 1-El. energy change                    ....  1.000e-05 Eh
 Orbital Gradient       TolG            ....  1.000e-05
 Orbital Rotation angle TolX            ....  1.000e-05
 DIIS Error             TolErr          ....  5.000e-07

------------------------------
INITIAL GUESS: MODEL POTENTIAL
------------------------------
Loading Hartree-Fock densities                     ... done
Atomic calculation to generate a density for atom 0 (Zr with ECP)
  Multiplicity assumed   :    3
  Atomic configuration   : 1s2 2s2 2p6 3s2 3p6 4s2 3d10 4p6 4d2 5s2 
  Number of open shells  : 2
  Command: /home/mehlhorn/programs/orca6/orca run_f_atom40.inp "" > run_f_atom40.out
Returned from the atomic calculation with res=0
Calculating cut-offs                               ... done
Initializing the effective Hamiltonian             ... done
Setting up the integral package (SHARK)            ... done
Starting the Coulomb interaction                   ... done (   1.0 sec)
Making the grid                                    ... done (   0.8 sec)
Mapping shells                                     ... done
Starting the XC term evaluation                    ... done (   0.3 sec)
  promolecular density results
     # of electrons  =    595.983958483
     EX              =  -1008.610707413
     EC              =    -24.428014771
     EX+EC           =  -1033.038722184
Transforming the Hamiltonian                       ... done (   0.3 sec)
Diagonalizing the Hamiltonian                      ... done (   0.4 sec)
Back transforming the eigenvectors                 ... done (   0.3 sec)
Now organizing SCF variables                       ... done
                      ------------------
                      INITIAL GUESS DONE (   7.6 sec)
                      ------------------
             **** ENERGY FILE WAS UPDATED (run_f.en.tmp) ****
Finished Guess after  10.0 sec
Maximum memory used throughout the entire GUESS-calculation: 219.8 MB


           ************************************************************
           *        Program running with 64 parallel MPI-processes    *
           *              working on a common directory               *
           ************************************************************

-------------------------------------------------------------------------------------------
                                      ORCA LEAN-SCF
                              memory conserving SCF solver
-------------------------------------------------------------------------------------------

--------------------
CPCM SOLVATION MODEL
--------------------
CPCM parameters:
  Epsilon                                         ...       1.9578
  Refrac                                          ...       1.0000
  Rsolv                                           ...       1.3000
  Surface type                                    ... GAUSSIAN VDW
  Discretization scheme                           ... Constant charge density
    Threshold for H atoms                         ...       5.0000 (charges/Ang^2)
    Threshold for non-H atoms                     ...       5.0000 (charges/Ang^2)
  Epsilon function type                           ...         CPCM
Solvent:                                          ... CUSTOM
Radii:
  Scheme                                          ... Element-dependent radii
  Radius for Zr used is    4.5353 Bohr (=   2.4000 Ang.)
  Radius for O  used is    3.4469 Bohr (=   1.8240 Ang.)
  Radius for C  used is    3.8550 Bohr (=   2.0400 Ang.)
  Radius for H  used is    2.4944 Bohr (=   1.3200 Ang.)
  Radius for Al used is    4.1725 Bohr (=   2.2080 Ang.)
Calculating surface                               ...        done! (  0.0s)
Cavity surface points                             ...         5374
Cavity Volume                                     ...    5259.0869
Cavity Surface-area                               ...    2125.9718
Calculating surface distance matrix               ...        done! (  0.2s)
Performing Cholesky decomposition & store         ...        done! (  0.7s)
Overall time for CPCM initialization              ...                 0.9s

----------------------------------------D-I-I-S--------------------------------------------
Iteration    Energy (Eh)           Delta-E    RMSDP     MaxDP     DIISErr   Damp  Time(sec)
-------------------------------------------------------------------------------------------
               ***  Starting incremental Fock matrix formation  ***
    1    -3474.9834301332230098     0.00e+00  1.71e+00  1.02e+02  6.88e-01  0.700   7.4
Warning: op=0 Small HOMO/LUMO gap (  -5.800) - skipping pre-diagonalization
         LevelShift set to 1.000 Eh
         Will do a full diagonalization
    2    -3446.7878304969781311     2.82e+01  5.04e-01  3.05e+01  4.05e-01  0.700   8.6
    3    -3459.6161358405079227    -1.28e+01  3.64e-01  2.15e+01  6.67e-01  0.700   7.3
    4    -3468.0807876965482137    -8.46e+00  2.57e-01  1.50e+01  2.85e-01  0.700   7.0
    5    -3475.3933039123039634    -7.31e+00  1.80e-01  1.05e+01  2.38e-01  0.700   7.1
    6    -3479.7502110411678586    -4.36e+00  1.27e-01  7.38e+00  2.57e-01  0.700   7.1
    7    -3482.8141834016987559    -3.06e+00  8.97e-02  5.17e+00  2.58e-01  0.700   7.1
    8    -3485.2520031991552969    -2.44e+00  6.27e-02  3.61e+00  2.16e-01  0.700   7.0
                               ***Turning on AO-DIIS***
    9    -3487.1285442660737317    -1.88e+00  4.37e-02  2.52e+00  1.65e-01  0.700   7.1
   10    -3488.4656215139366395    -1.34e+00  3.05e-02  1.76e+00  1.38e-01  0.700   7.1
   11    -3489.4368470081499254    -9.71e-01  2.13e-02  1.22e+00  1.09e-01  0.700   7.1
   12    -3490.1526414281324833    -7.16e-01  1.51e-02  8.54e-01  7.78e-02  0.700   7.1
   13    -3490.6779251842217491    -5.25e-01  3.61e-02  2.00e+00  6.51e-02  0.000   6.9
   14    -3491.9331506054986676    -1.26e+00  3.26e-03  1.01e-01  6.43e-02  0.000   7.2
   15    -3492.0032452476880280    -7.01e-02  2.91e-03  9.53e-02  4.69e-02  0.000   6.7
   16    -3492.0549340570178174    -5.17e-02  2.33e-03  7.45e-02  2.59e-02  0.000   6.8
   17    -3492.0925416127902281    -3.76e-02  1.92e-03  5.75e-02  1.90e-02  0.000   6.7
   18    -3492.1214935286425316    -2.90e-02  1.55e-03  4.11e-02  1.78e-02  0.000   6.8
   19    -3492.1434444605820318    -2.20e-02  1.24e-03  2.82e-02  1.55e-02  0.000   6.7
   20    -3492.1598940711173782    -1.64e-02  1.01e-03  2.07e-02  1.49e-02  0.000   6.6
               *** Restarting incremental Fock matrix formation ***
                             ****Resetting DIIS****
   21    -3492.1727933246165776    -1.29e-02  4.70e-03  6.48e-02  1.35e-02  0.000   8.4
   22    -3492.2099263088639418    -3.71e-02  6.78e-04  1.17e-02  1.39e-02  0.000   6.7
   23    -3492.2078408115194179     2.09e-03  4.54e-04  8.35e-03  2.87e-02  0.000   6.6
                              *** Initializing SOSCF ***
---------------------------------------S-O-S-C-F--------------------------------------
Iteration    Energy (Eh)           Delta-E    RMSDP     MaxDP     MaxGrad    Time(sec)
--------------------------------------------------------------------------------------
   24    -3492.2106728402468434    -2.83e-03  1.22e-04  2.58e-03  3.03e-03     7.8
               *** Restarting incremental Fock matrix formation ***
   25    -3492.2107007312570204    -2.79e-05  2.00e-04  4.67e-03  2.46e-04     6.9
   26    -3492.2103922440528549     3.08e-04  1.43e-04  2.62e-03  7.86e-04     5.8
   27    -3492.2107376812728035    -3.45e-04  1.02e-04  2.44e-03  1.56e-04     5.9
   28    -3492.2106907173874788     4.70e-05  7.41e-05  1.83e-03  3.34e-04     5.9
   29    -3492.2107462982985453    -5.56e-05  1.66e-05  4.13e-04  3.84e-05     5.9
   30    -3492.2107449676695978     1.33e-06  1.10e-05  1.65e-04  7.02e-05     5.8
   31    -3492.2107464769669605    -1.51e-06  1.09e-05  2.56e-04  1.74e-05     5.8
   32    -3492.2107462356816541     2.41e-07  6.96e-06  1.56e-04  4.20e-05     5.8
   33    -3492.2107465396711632    -3.04e-07  8.37e-06  2.89e-04  4.64e-06     5.8
   34    -3492.2107465595545364    -1.99e-08  3.65e-06  7.68e-05  8.38e-06     5.8
   35    -3492.2107466692068556    -1.10e-07  5.40e-06  7.10e-05  1.29e-06     5.9
                  *** Gradient check signals convergence ***

               *****************************************************
               *                     SUCCESS                       *
               *           SCF CONVERGED AFTER  35 CYCLES          *
               *****************************************************

             **** ENERGY FILE WAS UPDATED (run_f.en.tmp) ****

----------------
TOTAL SCF ENERGY
----------------

Total Energy       :      -3492.21074663526997 Eh          -95027.88554 eV

Components:
Nuclear Repulsion  :      10527.78866508412466 Eh          286475.69372 eV
Electronic Energy  :     -14019.98009133233609 Eh         -381503.05353 eV
One Electron Energy:     -25914.14169486695391 Eh         -705159.64514 eV
Two Electron Energy:      11894.16160353461783 Eh          323656.59162 eV
CPCM Dielectric    :         -0.01932038705828 Eh              -0.52573 eV

Virial components:
Potential Energy   :      -6781.59926864814770 Eh         -184536.69776 eV
Kinetic Energy     :       3289.38852201287818 Eh           89508.81222 eV
Virial Ratio       :          2.06165955260836

DFT components:
N(Alpha)           :      213.999813007250 electrons
N(Beta)            :      213.999813007250 electrons
N(Total)           :      427.999626014500 electrons
E(X)               :     -385.114521370950 Eh       
E(C)               :      -15.012011079686 Eh       
E(XC)              :     -400.126532450637 Eh       

CPCM Solvation Model Properties:
Surface-charge          :         -0.05352228622294
Corrected charge        :          0.00000000000000
Outlying charge corr.   :          0.00006027636669 Eh               0.00164 eV
Free-energy (cav+disp)  :  This term is not implemented in the current solvation scheme

---------------
SCF CONVERGENCE
---------------

  Last Energy change         ...    1.0965e-07  Tolerance :   1.0000e-08
  Last MAX-Density change    ...    7.1011e-05  Tolerance :   1.0000e-07
  Last RMS-Density change    ...    5.3957e-06  Tolerance :   5.0000e-09
  Last DIIS Error            ...    3.0343e-03  Tolerance :   5.0000e-07
  Last Orbital Gradient      ...    1.2890e-06  Tolerance :   1.0000e-05
  Last Orbital Rotation      ...    4.4565e-06  Tolerance :   1.0000e-05


----------------
ORBITAL ENERGIES
----------------

  NO   OCC          E(Eh)            E(eV) 
   0   2.0000     -55.377823     -1506.9072 
   1   2.0000     -55.348414     -1506.1069 
   2   2.0000     -18.793637      -511.4008 
   3   2.0000     -18.792596      -511.3725 
   4   2.0000     -18.785071      -511.1678 
   5   2.0000     -18.782608      -511.1008 
   6   2.0000     -18.779097      -511.0052 
   7   2.0000     -18.778645      -510.9929 
   8   2.0000     -18.778546      -510.9902 
   9   2.0000     -18.777891      -510.9724 
  10   2.0000     -18.777841      -510.9710 
  11   2.0000     -18.777754      -510.9687 
  12   2.0000     -18.777553      -510.9632 
  13   2.0000     -18.777526      -510.9625 
  14   2.0000     -18.775254      -510.9006 
  15   2.0000     -18.773900      -510.8638 
  16   2.0000     -18.773585      -510.8552 
  17   2.0000     -18.773392      -510.8500 
  18   2.0000     -18.773174      -510.8440 
  19   2.0000     -18.772967      -510.8384 
  20   2.0000     -18.772604      -510.8285 
  21   2.0000     -18.772376      -510.8223 
  22   2.0000     -18.772278      -510.8196 
  23   2.0000     -18.772073      -510.8141 
  24   2.0000     -18.771085      -510.7872 
  25   2.0000     -18.769832      -510.7531 
  26   2.0000     -18.742941      -510.0213 
  27   2.0000     -18.741397      -509.9793 
  28   2.0000     -18.740470      -509.9541 
  29   2.0000     -18.738610      -509.9035 
  30   2.0000     -18.738034      -509.8878 
  31   2.0000     -18.737429      -509.8714 
  32   2.0000     -10.035184      -273.0712 
  33   2.0000     -10.032733      -273.0046 
  34   2.0000     -10.025354      -272.8038 
  35   2.0000     -10.024932      -272.7923 
  36   2.0000     -10.024032      -272.7678 
  37   2.0000     -10.022973      -272.7390 
  38   2.0000     -10.020445      -272.6702 
  39   2.0000     -10.020178      -272.6629 
  40   2.0000     -10.019918      -272.6558 
  41   2.0000     -10.019387      -272.6414 
  42   2.0000     -10.019146      -272.6348 
  43   2.0000     -10.017219      -272.5824 
  44   2.0000      -3.934287      -107.0574 
  45   2.0000      -3.909979      -106.3959 
  46   2.0000      -2.537587       -69.0513 
  47   2.0000      -2.536316       -69.0167 
  48   2.0000      -2.534668       -68.9718 
  49   2.0000      -2.515225       -68.4428 
  50   2.0000      -2.511728       -68.3476 
  51   2.0000      -2.508293       -68.2541 
  52   2.0000      -2.040837       -55.5340 
  53   2.0000      -2.040178       -55.5161 
  54   2.0000      -2.039517       -55.4981 
  55   2.0000      -2.038554       -55.4719 
  56   2.0000      -2.037339       -55.4388 
  57   2.0000      -2.036801       -55.4242 
  58   2.0000      -1.228677       -33.4340 
  59   2.0000      -1.225562       -33.3492 
  60   2.0000      -1.224561       -33.3220 
  61   2.0000      -1.222422       -33.2638 
  62   2.0000      -1.222067       -33.2541 
  63   2.0000      -1.221449       -33.2373 
  64   2.0000      -1.217450       -33.1285 
  65   2.0000      -1.216126       -33.0925 
  66   2.0000      -1.215529       -33.0762 
  67   2.0000      -1.214485       -33.0478 
  68   2.0000      -1.214199       -33.0400 
  69   2.0000      -1.213315       -33.0160 
  70   2.0000      -1.212111       -32.9832 
  71   2.0000      -1.212085       -32.9825 
  72   2.0000      -1.210657       -32.9436 
  73   2.0000      -1.210322       -32.9345 
  74   2.0000      -1.209695       -32.9175 
  75   2.0000      -1.207999       -32.8713 
  76   2.0000      -1.026393       -27.9296 
  77   2.0000      -1.021723       -27.8025 
  78   2.0000      -1.012018       -27.5384 
  79   2.0000      -1.010825       -27.5059 
  80   2.0000      -1.010214       -27.4893 
  81   2.0000      -1.009805       -27.4782 
  82   2.0000      -1.006883       -27.3987 
  83   2.0000      -1.005512       -27.3614 
  84   2.0000      -1.004735       -27.3402 
  85   2.0000      -1.002729       -27.2856 
  86   2.0000      -1.002384       -27.2762 
  87   2.0000      -1.000312       -27.2199 
  88   2.0000      -0.944580       -25.7033 
  89   2.0000      -0.936023       -25.4705 
  90   2.0000      -0.932000       -25.3610 
  91   2.0000      -0.931151       -25.3379 
  92   2.0000      -0.929940       -25.3049 
  93   2.0000      -0.929136       -25.2831 
  94   2.0000      -0.927690       -25.2437 
  95   2.0000      -0.926243       -25.2044 
  96   2.0000      -0.925492       -25.1839 
  97   2.0000      -0.924625       -25.1603 
  98   2.0000      -0.922866       -25.1125 
  99   2.0000      -0.922680       -25.1074 
 100   2.0000      -0.841665       -22.9029 
 101   2.0000      -0.834564       -22.7096 
 102   2.0000      -0.832079       -22.6420 
 103   2.0000      -0.827594       -22.5200 
 104   2.0000      -0.824069       -22.4241 
 105   2.0000      -0.823159       -22.3993 
 106   2.0000      -0.582931       -15.8624 
 107   2.0000      -0.571574       -15.5533 
 108   2.0000      -0.568426       -15.4677 
 109   2.0000      -0.566429       -15.4133 
 110   2.0000      -0.565630       -15.3916 
 111   2.0000      -0.562616       -15.3096 
 112   2.0000      -0.562359       -15.3026 
 113   2.0000      -0.561068       -15.2674 
 114   2.0000      -0.557955       -15.1827 
 115   2.0000      -0.556095       -15.1321 
 116   2.0000      -0.555621       -15.1192 
 117   2.0000      -0.555427       -15.1139 
 118   2.0000      -0.513844       -13.9824 
 119   2.0000      -0.486731       -13.2446 
 120   2.0000      -0.477154       -12.9840 
 121   2.0000      -0.474780       -12.9194 
 122   2.0000      -0.473621       -12.8879 
 123   2.0000      -0.473079       -12.8731 
 124   2.0000      -0.472061       -12.8454 
 125   2.0000      -0.471080       -12.8187 
 126   2.0000      -0.468990       -12.7619 
 127   2.0000      -0.468697       -12.7539 
 128   2.0000      -0.466541       -12.6952 
 129   2.0000      -0.465502       -12.6670 
 130   2.0000      -0.464204       -12.6316 
 131   2.0000      -0.461967       -12.5708 
 132   2.0000      -0.461388       -12.5550 
 133   2.0000      -0.460549       -12.5322 
 134   2.0000      -0.459243       -12.4966 
 135   2.0000      -0.458188       -12.4679 
 136   2.0000      -0.454808       -12.3760 
 137   2.0000      -0.450760       -12.2658 
 138   2.0000      -0.449486       -12.2311 
 139   2.0000      -0.448797       -12.2124 
 140   2.0000      -0.446343       -12.1456 
 141   2.0000      -0.443356       -12.0643 
 142   2.0000      -0.437353       -11.9010 
 143   2.0000      -0.433101       -11.7853 
 144   2.0000      -0.428024       -11.6471 
 145   2.0000      -0.424487       -11.5509 
 146   2.0000      -0.421166       -11.4605 
 147   2.0000      -0.417787       -11.3686 
 148   2.0000      -0.412419       -11.2225 
 149   2.0000      -0.410347       -11.1661 
 150   2.0000      -0.409254       -11.1364 
 151   2.0000      -0.404736       -11.0134 
 152   2.0000      -0.403875       -10.9900 
 153   2.0000      -0.402338       -10.9482 
 154   2.0000      -0.401696       -10.9307 
 155   2.0000      -0.373138       -10.1536 
 156   2.0000      -0.370608       -10.0848 
 157   2.0000      -0.369487       -10.0542 
 158   2.0000      -0.366639        -9.9768 
 159   2.0000      -0.361975        -9.8498 
 160   2.0000      -0.358437        -9.7536 
 161   2.0000      -0.357814        -9.7366 
 162   2.0000      -0.344060        -9.3623 
 163   2.0000      -0.341023        -9.2797 
 164   2.0000      -0.337516        -9.1843 
 165   2.0000      -0.335271        -9.1232 
 166   2.0000      -0.331824        -9.0294 
 167   2.0000      -0.330130        -8.9833 
 168   2.0000      -0.328865        -8.9489 
 169   2.0000      -0.324394        -8.8272 
 170   2.0000      -0.321757        -8.7555 
 171   2.0000      -0.316426        -8.6104 
 172   2.0000      -0.314194        -8.5496 
 173   2.0000      -0.311325        -8.4716 
 174   2.0000      -0.308852        -8.4043 
 175   2.0000      -0.307969        -8.3803 
 176   2.0000      -0.305755        -8.3200 
 177   2.0000      -0.304738        -8.2923 
 178   2.0000      -0.301782        -8.2119 
 179   2.0000      -0.300172        -8.1681 
 180   2.0000      -0.298460        -8.1215 
 181   2.0000      -0.298143        -8.1129 
 182   2.0000      -0.295174        -8.0321 
 183   2.0000      -0.292322        -7.9545 
 184   2.0000      -0.290566        -7.9067 
 185   2.0000      -0.289176        -7.8689 
 186   2.0000      -0.287590        -7.8257 
 187   2.0000      -0.287244        -7.8163 
 188   2.0000      -0.286197        -7.7878 
 189   2.0000      -0.285676        -7.7736 
 190   2.0000      -0.284763        -7.7488 
 191   2.0000      -0.284604        -7.7445 
 192   2.0000      -0.283800        -7.7226 
 193   2.0000      -0.282472        -7.6865 
 194   2.0000      -0.281318        -7.6550 
 195   2.0000      -0.278944        -7.5905 
 196   2.0000      -0.278481        -7.5779 
 197   2.0000      -0.277771        -7.5585 
 198   2.0000      -0.276591        -7.5264 
 199   2.0000      -0.275428        -7.4948 
 200   2.0000      -0.274647        -7.4735 
 201   2.0000      -0.274551        -7.4709 
 202   2.0000      -0.272987        -7.4284 
 203   2.0000      -0.271124        -7.3777 
 204   2.0000      -0.269818        -7.3421 
 205   2.0000      -0.268023        -7.2933 
 206   2.0000      -0.264559        -7.1990 
 207   2.0000      -0.262693        -7.1482 
 208   2.0000      -0.260767        -7.0958 
 209   2.0000      -0.257332        -7.0024 
 210   2.0000      -0.253156        -6.8887 
 211   2.0000      -0.247286        -6.7290 
 212   2.0000      -0.242297        -6.5932 
 213   2.0000      -0.235510        -6.4086 
 214   0.0000      -0.115833        -3.1520 
 215   0.0000      -0.100434        -2.7330 
 216   0.0000      -0.091799        -2.4980 
 217   0.0000      -0.086920        -2.3652 
 218   0.0000      -0.085255        -2.3199 
 219   0.0000      -0.081776        -2.2252 
 220   0.0000      -0.081342        -2.2134 
 221   0.0000      -0.078686        -2.1412 
 222   0.0000      -0.075196        -2.0462 
 223   0.0000      -0.073261        -1.9935 
 224   0.0000      -0.067293        -1.8311 
*Only the first 10 virtual orbitals were printed.
-------
TIMINGS
-------

Total SCF time: 0 days 0 hours 4 min 5 sec 

Total time                  ....     245.135 sec
Sum of individual times     ....     237.187 sec  ( 96.8%)

SCF preparation             ....       3.161 sec  (  1.3%)
Fock matrix formation       ....     171.748 sec  ( 70.1%)
  Startup                   ....       2.304 sec  (  1.3% of F)
  Split-RI-J                ....      53.454 sec  ( 31.1% of F)
  XC integration            ....      53.587 sec  ( 31.2% of F)
    XC Preparation          ....       0.000 sec  (  0.0% of XC)
    Basis function eval.    ....       8.304 sec  ( 15.5% of XC)
    Density eval.           ....      21.893 sec  ( 40.9% of XC)
    XC-Functional eval.     ....       0.344 sec  (  0.6% of XC)
    XC-Potential eval.      ....      12.825 sec  ( 23.9% of XC)
  CPCM terms                ....      52.120 sec  ( 30.3% of F)
Diagonalization             ....       0.000 sec  (  0.0%)
Density matrix formation    ....      10.436 sec  (  4.3%)
Total Energy calculation    ....       4.727 sec  (  1.9%)
Population analysis         ....       0.000 sec  (  0.0%)
Orbital Transformation      ....       2.434 sec  (  1.0%)
Orbital Orthonormalization  ....       0.000 sec  (  0.0%)
DIIS solution               ....      32.919 sec  ( 13.4%)
SOSCF solution              ....      11.763 sec  (  4.8%)
Finished LeanSCF after 246.0 sec

Maximum memory used throughout the entire LEANSCF-calculation: 255.0 MB


           ************************************************************
           *        Program running with 64 parallel MPI-processes    *
           *              working on a common directory               *
           ************************************************************

------------------------------------------------------------------------------
                         ORCA PROPERTY INTEGRAL CALCULATIONS
------------------------------------------------------------------------------

GBWName                                   ... run_f.gbw
Number of atoms                           ...     68
Number of basis functions                 ...   1724
Max core memory                           ...   4096 MB

Dipole integrals                          ... YES
Quadrupole integrals                      ...  NO
Linear momentum integrals                 ...  NO
Angular momentum integrals                ...  NO
Higher moments length integrals           ...  NO
Higher moments velocity integrals         ...  NO
Kinetic energy integrals                  ...  NO
GIAO right hand sides                     ...  NO
GIAO dipole derivative integrals          ...  NO
SOC integrals                             ...  NO
EPR diamagnetic integrals (GIAO)          ...  NO
EPR gauge integrals                       ...  NO
Field gradient integrals                  ...  NO (   0 nuclei)
Spin-dipole/Fermi contact integrals       ...  NO (   0 nuclei)
Contact density integrals                 ...  NO (   0 nuclei)
Nucleus-orbit integrals                   ...  NO (   0 nuclei)
Geometric perturbations                   ... YES (  68 nuclei)

Choice of electric origin   ... Center of mass
Position of electric origin ... (  0.4908, -0.4322, -0.1445) 
Choice of magnetic origin   ... GIAO
Position of magnetic origin ... (  0.0000,  0.0000,  0.0000) 

Calculating integrals                     ... Electric Dipole (Length)     done (  0.3 sec)
Calculating integrals                     ... Geometrical perturbation right hand sides

-----------------------
GEOMETRIC PERTURBATIONS (68 nuclei)
-----------------------

MaxCore                            ...   4096 MB
Number of batches                  ...      7

BATCH   0: Atoms    0 -   10 ( 33 perturbations)
   => H(core) and overlap derivative integrals     ... done (     2.5 sec)
   => Making and storing internal U-coefficients   ... done (     0.4 sec)
   => RI-J derivative integrals                    ... done (    22.9 sec)
   => RI-J response operators                      ... done (     6.8 sec)
   => ECP derivative integrals                     ... done (   314.9 sec)
   => XC derivative integrals                      ... done (   103.5 sec)
   => XC response operators                        ... done (    33.3 sec)
   => CPCM derivative integrals                    ... done (    40.8 sec)
   => CPCM response operators                      ... done (    70.6 sec)
   => Completing and storing right hand sides      ... done (     0.2 sec)
BATCH   1: Atoms   11 -   21 ( 33 perturbations)
   => H(core) and overlap derivative integrals     ... done (     2.4 sec)
   => Making and storing internal U-coefficients   ... done (     0.4 sec)
   => RI-J derivative integrals                    ... done (    21.5 sec)
   => RI-J response operators                      ... done (     6.8 sec)
   => ECP derivative integrals                     ... done (   317.8 sec)
   => XC derivative integrals                      ... done (    67.1 sec)
   => XC response operators                        ... done (    29.3 sec)
   => CPCM derivative integrals                    ... done (    41.2 sec)
   => CPCM response operators                      ... done (    71.0 sec)
   => Completing and storing right hand sides      ... done (     0.2 sec)
BATCH   2: Atoms   22 -   32 ( 33 perturbations)
   => H(core) and overlap derivative integrals     ... done (     2.4 sec)
   => Making and storing internal U-coefficients   ... done (     0.4 sec)
   => RI-J derivative integrals                    ... done (    21.5 sec)
   => RI-J response operators                      ... done (     6.9 sec)
   => ECP derivative integrals                     ... done (   319.5 sec)
   => XC derivative integrals                      ... done (    68.5 sec)
   => XC response operators                        ... done (    29.5 sec)
   => CPCM derivative integrals                    ... done (    43.7 sec)
   => CPCM response operators                      ... done (    74.1 sec)
   => Completing and storing right hand sides      ... done (     0.2 sec)
BATCH   3: Atoms   33 -   43 ( 33 perturbations)
   => H(core) and overlap derivative integrals     ... done (     2.4 sec)
   => Making and storing internal U-coefficients   ... done (     0.4 sec)
   => RI-J derivative integrals                    ... done (    21.6 sec)
   => RI-J response operators                      ... done (     6.8 sec)
   => ECP derivative integrals                     ... done (   319.5 sec)
   => XC derivative integrals                      ... done (    66.2 sec)
   => XC response operators                        ... done (    28.8 sec)
   => CPCM derivative integrals                    ... done (    42.7 sec)
   => CPCM response operators                      ... done (    72.9 sec)
   => Completing and storing right hand sides      ... done (     0.2 sec)
BATCH   4: Atoms   44 -   54 ( 33 perturbations)
   => H(core) and overlap derivative integrals     ... done (     2.4 sec)
   => Making and storing internal U-coefficients   ... done (     0.4 sec)
   => RI-J derivative integrals                    ... done (    20.2 sec)
   => RI-J response operators                      ... done (     6.8 sec)
   => ECP derivative integrals                     ... done (   320.9 sec)
   => XC derivative integrals                      ... done (    52.2 sec)
   => XC response operators                        ... done (    27.4 sec)
   => CPCM derivative integrals                    ... done (    44.3 sec)
   => CPCM response operators                      ... done (    74.7 sec)
   => Completing and storing right hand sides      ... done (     0.2 sec)
BATCH   5: Atoms   55 -   65 ( 33 perturbations)
   => H(core) and overlap derivative integrals     ... done (     2.4 sec)
   => Making and storing internal U-coefficients   ... done (     0.4 sec)
   => RI-J derivative integrals                    ... done (    19.7 sec)
   => RI-J response operators                      ... done (     6.6 sec)
   => ECP derivative integrals                     ... done (   321.5 sec)
   => XC derivative integrals                      ... done (    47.2 sec)
   => XC response operators                        ... done (    26.4 sec)
   => CPCM derivative integrals                    ... done (    41.2 sec)
   => CPCM response operators                      ... done (    71.1 sec)
   => Completing and storing right hand sides      ... done (     0.2 sec)
BATCH   6: Atoms   66 -   67 (  6 perturbations)
   => H(core) and overlap derivative integrals     ... done (     0.5 sec)
   => Making and storing internal U-coefficients   ... done (     0.3 sec)
   => RI-J derivative integrals                    ... done (     8.1 sec)
   => RI-J response operators                      ... done (     2.5 sec)
   => ECP derivative integrals                     ... done (    58.1 sec)
   => XC derivative integrals                      ... done (    28.9 sec)
   => XC response operators                        ... done (     6.1 sec)
   => CPCM derivative integrals                    ... done (    29.7 sec)
   => CPCM response operators                      ... done (    36.3 sec)
   => Completing and storing right hand sides      ... done (     0.2 sec)
   => Total time for right hand sides = 3299.5 sec

  geometrical perturbations done (3299.6 sec)

Property integrals calculated in 3300.2 sec

Maximum memory used throughout the entire PROPINT-calculation: 3228.6 MB


-------------------------------------------------------------------------------
                          DFT DISPERSION CORRECTION                            
                                                                               
                              DFTD3 V3.1  Rev 1                                
                          USING Becke-Johnson damping                          
-------------------------------------------------------------------------------
The PBE functional is recognized
Active option DFTDOPT                   ...         4   

molecular C6(AA) [au] = 111756.780822 


            DFT-D V3
 parameters
 s6 scaling factor         :     1.0000 
 a1 scaling factor         :     0.4289 
 s8 scaling factor         :     0.7875 
 a2 scaling factor         :     4.4407 
 ad hoc parameters k1-k3   :    16.0000     1.3333    -4.0000 

 Edisp/kcal,au: -92.302192263996  -0.147092890599 
 E6   /kcal   : -57.154607194 
 E8   /kcal   : -35.147585070 
 % E8         :  38.078819374 

-------------------------   ----------------
Dispersion correction           -0.147092891
-------------------------   ----------------


-------------------------   --------------------
FINAL SINGLE POINT ENERGY     -3492.357839525869
-------------------------   --------------------



           ************************************************************
           *        Program running with 64 parallel MPI-processes    *
           *              working on a common directory               *
           ************************************************************
------------------------------------------------------------------------------
                            ORCA SCF RESPONSE CALCULATION
------------------------------------------------------------------------------

GBWName                                 ... run_f.gbw
Number of atoms                         ...     68
Number of basis functions               ...   1724
Max core memory                         ...   4096 MB

Electric field perturbation             ...  NO
Quadrupolar field perturbation          ...  NO
Magnetic field perturbation (no GIAO)   ...  NO
Magnetic field perturbation (with GIAO) ...  NO
Linear momentum (velocity) perturbation ...  NO
Spin-orbit coupling perturbation        ...  NO
Choice of electric origin               ... Center of mass
Position of electric origin             ...     0.490772    -0.432207    -0.144478
Choice of magnetic origin               ... GIAO
Position of magnetic origin             ...     0.000000     0.000000     0.000000
Nuclear geometric perturbations         ... YES ( 204 perturbations)
Nucleus-orbit perturbations             ...  NO (   0 perturbations)
Spin-dipole/Fermi contact perturbations ...  NO (   0 perturbations)

Total number of real perturbations      ...    204
Total number of imaginary perturbations ...      0
Total number of triplet perturbations   ...      0
Total number of SOC perturbations       ...      0

Using XC Grid                  ... (run_f.grid_cpscf.tmp) 
Recalculating density on grid  ... (run_f.grho_cpscf0.tmp) done
Calculating the xc-kernel      ... (run_f.fxc_cpscf0.tmp) done

                                **********************
                                * REAL PERTURBATIONS *
                                **********************



-------------------
SHARK CP-SCF DRIVER
-------------------

Dimension of the orbital basis          ...   1724
Dimension of the CPSCF-problem          ... 323140
Number of operators                     ...      1
Max. number of iterations               ...    128
Convergence Tolerance                   ... 1.0e-04
Number of perturbations                 ...    204
Perturbation type                       ... REAL

----------------------------
POPLE LINEAR EQUATION SOLVER
----------------------------

  ITERATION   0: 
ORCA finished by error termination in SCF RESPONSE
Calling Command: mpirun -np 64  /home/mehlhorn/programs/orca6/orca_scfresp_mpi run_f.respinp.tmp run_f 1 run_f 
[file orca_tools/qcmsg.cpp, line 394]: 
  .... aborting the run

