
                                 *****************
                                 * O   R   C   A *
                                 *****************

                                            #,                                       
                                            ###                                      
                                            ####                                     
                                            #####                                    
                                            ######                                   
                                           ########,                                 
                                     ,,################,,,,,                         
                               ,,#################################,,                 
                          ,,##########################################,,             
                       ,#########################################, ''#####,          
                    ,#############################################,,   '####,        
                  ,##################################################,,,,####,       
                ,###########''''           ''''###############################       
              ,#####''   ,,,,##########,,,,          '''####'''          '####       
            ,##' ,,,,###########################,,,                        '##       
           ' ,,###''''                  '''############,,,                           
         ,,##''                                '''############,,,,        ,,,,,,###''
      ,#''                                            '''#######################'''  
     '                                                          ''''####''''         
             ,#######,   #######,   ,#######,      ##                                
            ,#'     '#,  ##    ##  ,#'     '#,    #''#        ,####,    ,#,          
            ##       ##  ##   ,#'  ##            #'  '#       #'       ,# #          
            ##       ##  #######   ##           ,######,      #####,      #          
            '#,     ,#'  ##    ##  '#,     ,#' ,#      #,     #,   #      #          
             '#######'   ##     ##  '#######'  #'      '#     '####' #    #          



                #########################################################
                #                        -***-                          #
                #          Department of theory and spectroscopy        #
                #                                                       #
                #                      Frank Neese                      #
                #                                                       #
                #     Directorship, Architecture, Infrastructure        #
                #                    SHARK, DRIVERS                     #
                #        Core code/Algorithms in most modules           #
                #                                                       #
                #        Max Planck Institute fuer Kohlenforschung      #
                #                Kaiser Wilhelm Platz 1                 #
                #                 D-45470 Muelheim/Ruhr                 #
                #                      Germany                          #
                #                                                       #
                #                  All rights reserved                  #
                #                        -***-                          #
                #########################################################


                         Program Version 6.1.0  -  RELEASE   -
                                (GIT: $679e74b$)
                          ($2025-06-10 18:02:51 +0200$)


 With contributions from (in alphabetic order):
[Max-Planck-Institut fuer Kohlenforschung]                               
  Daniel Aravena         : Magnetic Suceptibility                        
  Michael Atanasov       : Ab Initio Ligand Field Theory (pilot matlab implementation)
  Alexander A. Auer      : GIAO ZORA, VPT2 properties, NMR spectrum      
  Ute Becker             : All parallelization in ORCA, NUMFREQ, NUMCALC 
  Giovanni Bistoni       : ED, misc. LED, open-shell LED, HFLD           
  Dmytro Bykov           : pre 5.0 version of the SCF Hessian            
  Marcos Casanova-Páez   : Triplet and SCS-CIS(D). UHF-(DLPNO)-IP/EA/STEOM-CCSD. UHF-CVS-IP/STEOM-CCSD   
  Vijay G. Chilkuri      : MRCI spin determinant printing, contributions to CSF-ICE 
  Pauline Colinet        : FMM embedding                                 
  Dipayan Datta          : RHF DLPNO-CCSD density                        
  Achintya Kumar Dutta   : EOM-CC, STEOM-CC                              
  Nicolas Foglia         : Exact transition moments, OPA infrastructure, MCD improvements    
  Dmitry Ganyushin       : Spin-Orbit,Spin-Spin,Magnetic field MRCI      
  Miquel Garcia-Rates    : C-PCM and meta-GGA Hessian, CCSD/C-PCM, Gaussian charge scheme 
  Tiago L. C. Gouveia    : GS-ROHF, GS-ROCIS                             
  Yang Guo               : DLPNO-NEVPT2, F12-NEVPT2, CIM, IAO-localization        
  Andreas Hansen         : Spin unrestricted coupled pair/coupled cluster methods 
  Ingolf Harden          : AUTO-CI MPn and infrastructure                
  Benjamin Helmich-Paris : MC-RPA, TRAH-(SCF,CASSCF), AVAS, COSX integrals, SCF dyn. polar., MC-PDFT, srDFT 
  Lee Huntington         : MR-EOM, pCC                                   
  Robert Izsak           : Overlap fitted RIJCOSX, COSX-SCS-MP3, EOM     
  Riya Kayal             : Wick's Theorem for AUTO-CI, AUTO-CI UHF-CCSDT 
  Emily Kempfer          : AUTO-CI RHF CISDT and CCSDT, approximate NEVPT4
  Christian Kollmar      : KDIIS, OOCD, Brueckner-CCSD(T), CCSD density, CASPT2, CASPT2-K, improved NEVPT2 
  Axel Koslowski         : Symmetry handling                             
  Simone Kossmann        : meta-GGA functionals, TD-DFT gradient, OOMP2, (MP2 Hessian; deprecated post 5.0) 
  Lucas Lang             : DCDCAS, Hyperfine gauge corrections, ICE-SOC+SSC
  Marvin Lechner         : AUTO-CI (C++ implementation), FIC-MRCC        
  Spencer Leger          : CASSCF response                               
  Dagmar Lenk            : GEPOL surface, SMD, ORCA-2-JSON               
  Dimitrios Liakos       : Extrapolation schemes; Compound Job, Property file
  Dimitrios Manganas     : Further ROCIS development; embedding schemes. LFT, Crystal Embedding 
  Dimitrios Pantazis     : SARC Basis sets                               
  Anastasios Papadopoulos: AUTO-CI, single reference methods and gradients 
  Taras Petrenko         : pre 6.0 DFT Hessian and TD-DFT gradient,  ECA, NRVS 
  Petra Pikulova         : Analytic Raman intensities                    
  Peter Pinski           : DLPNO-MP2, DLPNO-MP2 Gradient                 
  Shashank Vittal Rao    : ES-AILFT, MagRelax                            
  Christoph Reimann      : Effective Core Potentials                     
  Marius Retegan         : Local ZFS, SOC                                
  Christoph Riplinger    : Optimizer, TS searches, QM/MM, DLPNO-CCSD(T), (RO)-DLPNO pert. Triples 
  Michael Roemelt        : Original ROCIS implementation, recursive CI coupling coefficients
  Masaaki Saitow         : Open-shell DLPNO-CCSD energy and density      
  Barbara Sandhoefer     : DKH picture change effects                    
  Yorick L. A. Schmerwitz: GMF and freeze-and-release deltaSCF, NEB S-IDPP initial path                    
  Kantharuban Sivalingam : CASSCF convergence/infrastructure, NEVPT2, NEVPT3, NEVPT4(SD), FIC-MRCI and CEPA variants
  Bernardo de Souza      : ESD, SOC TD-DFT                               
  Georgi L. Stoychev     : AutoAux, RI-MP2 NMR, DLPNO-MP2 response, X2C  
  Van Anh Tran           : RI-MP2 g-tensors                              
  Willem Van den Heuvel  : Paramagnetic NMR                              
  Zikuan Wang            : NOTCH, Electric field optimization            
  Frank Wennmohs         : Technical directorship and infrastructure     
  Hang Xu                : AUTO-CI-Response properties                   
                                                                         
[FACCTs GmbH]                                                            
  Markus Bursch, Nicolas Foglia, Miquel Garcia-Rates, Ingolf Harden, Hagen Neugebauer, Anastasios Papadopoulos, 
  Christoph Riplinger, Bernardo de Souza, Georgi L. Stoychev                                                    
                                                                 
  APM, various basis sets, CI-OPT, improved COSX, DLPNO-Multilevel,           
  DOCKER, DRACO, updates on ESD, Fragmentator, GOAT, IRC, LR-CPCM, L-BFGS, MBIS, meta-GGA TD-DFT gradient, ML-optimized integration grids, 
  MM, NACMEs, nearIR, NEB, NEB-TS, NL-DFT gradient (VV10), 2- and 3-layer-ONIOM, interface openCOSMO-RS, QMMM,   
  Crystal-QMMM, RESP, rigid body optimization, SF, symmetry and pop. for TD-DFT, various functionals, SOLVATOR                                   
                                                                         
[Other institutions]                                                     
  V. Asgeirsson          : NEB                                           
  Christoph Bannwarth    : sTDA-DFT, sTD-DFT, PBEh-3c, B97-3c, D3        
  Giovanni Bistoni       : ETS/NOCV, ADLD/ADEX, COVALED                  
  Martin Brehm           : Molecular dynamics                            
  Ronald Cardenas        : ETS/NOCV                                      
  Martina Colucci        : COVALED                                       
  Sebastian Ehlert       : rSCAN, r2SCAN, r2SCAN-3c, D4, dhf basis sets  
  Marvin Friede          : D4 for Fr, Ra, Ac-Lr                          
  Lars Goerigk           : TD-DFT with DH, B97 family of functionals     
  Stefan Grimme          : VdW corrections, initial TS optimization, DFT functionals, gCP, sTDA/sTD-DF 
  Waldemar Hujo          : DFT-NL                                        
  H. Jonsson             : NEB                                           
  Holger Kruse           : gCP                                           
  Marcel Mueller         : wB97X-3c, vDZP basis set                      
  Hagen Neugebauer       : wr2SCAN, Native XTB                           
  Gianluca Regni         : ADLD/ADEX                                     
  Tobias Risthaus        : pre 6.0 range-separated hybrid DFT and stability analysis
  Lukas Wittmann         : regularized MP2, r2SCAN double-hybrids, wr2SCAN        
                                                                         
We gratefully acknowledge several colleagues who have allowed us to      
interface, adapt or use parts of their codes:                            
  Ed Valeev, F. Pavosevic, A. Kumar             : LibInt (2-el integral package), F12 methods 
  Garnet Chan, S. Sharma, J. Yang, R. Olivares  : DMRG                   
  Ulf Ekstrom                                   : XCFun DFT Library      
  Mihaly Kallay                                 : mrcc  (arbitrary order and MRCC methods)
  Frank Weinhold                                : gennbo (NPA and NBO analysis)           
  Simon Mueller                                 : openCOSMO-RS                            
  Christopher J. Cramer and Donald G. Truhlar   : smd solvation model                     
  S Lehtola, MJT Oliveira, MAL Marques          : LibXC Library                           
  Liviu Ungur et al                             : ANISO software                          


 Your calculation uses the libint2 library for the computation of 2-el integrals
 For citations please refer to: http://libint.valeyev.net

 Your ORCA version has been built with support for libXC version: 7.0.0
 For citations please refer to: https://libxc.gitlab.io

 This ORCA versions uses:
   CBLAS   interface :  Fast vector & matrix operations
   LAPACKE interface :  Fast linear algebra routines
   SCALAPACK package :  Parallel linear algebra routines
   Shared memory     :  Shared parallel matrices
   BLAS/LAPACK       :  OpenBLAS 0.3.29  USE64BITINT DYNAMIC_ARCH NO_AFFINITY Bulldozer SINGLE_THREADED
        Core in use  :  Bulldozer
   Copyright (c) 2011-2014, The OpenBLAS Project


  ***********************************
  * Starting time: Sun Aug 31 11:00:16 2025
  * Host name:     chromium12
  * Process ID:    488841
  * Working dir.:  /local/scratch/mehlhorn/62349
  ***********************************

================================================================================

----- Orbital basis set information -----
Your calculation utilizes the basis: def2-SVP
   F. Weigend and R. Ahlrichs, Phys. Chem. Chem. Phys. 7, 3297 (2005).

The basis set includes element-specific modifications.

----- AuxJ basis set information -----
Your calculation utilizes the auxiliary basis: def2/J
   H-Rn: F. Weigend, Phys. Chem. Chem. Phys. 8, 1057 (2006).
   Fr-Lr: K. Eichkorn, F. Weigend, O. Treutler, R. Ahlrichs; Theor. Chem. Acc. 97, 119 (1997).

The basis set includes element-specific modifications.

================================================================================
                                        WARNINGS
                       Please study these warnings very carefully!
================================================================================

WARNING: Frozen-Core approximation turned on, but there are no core electrons.
  ===> : Turning off frozen-core approximation


WARNING: ROHF and Conv is not properly working
  ===> : Setting Mode to Direct


WARNING: Found SCFConvIgnored == true
  ===> : Will try to continue after any unconverged SCF -
         no matter how far from convergence the wavefunction might be.

         Please be very careful with your results!


WARNING: TRAH-SCF with ROHF wave function is not implemented yet
  ===> : Turning TRAH off


================================================================================
                                       INPUT FILE
================================================================================
NAME = run_atom40.inp
|  1> # input to generate an atomic fitting density for Zr
|  2> # this file is used internally by ORCA
|  3> #
|  4> # atomic ground state (Mult=3): 1s2 2s2 2p6 3s2 3p6 4s2 3d10 4p6 4d2 5s2 
|  5> #
|  6> ! ROHF def2-SVP def2/J Conv LeanSCF AODIIS SOSCF NoMulliken NoLoewdin NoMayer NoPrintMOs 
|  7> 
|  8> %output print[p_atomdensfit] 2 end
|  9> 
| 10> %scf
| 11>   guess     HCore
| 12>   maxiter    1000
| 13>   maxdisk  500000
| 14>   diismaxeq     8
| 15>   soscfstart 1e-4
| 16>   lshift  0.300000
| 17>   ignoreconv true
| 18> 
| 19>   hftyp        rohf
| 20>   rohf_case    sahf
| 21>   rohf_numop   3
| 22>   rohf_norb[1] 5,1
| 23>   rohf_nel[1]  2,2
| 24> 
| 25> end
| 26> 
| 27> %basis
| 28>   NewECP 40
| 29>     N_core 28
| 30>     lmax f
| 31>     s 4
| 32>       1       8.2000000000    150.2675911000  2
| 33>       2       4.0897278000     18.9762165000  2
| 34>       3       7.5400000000     21.0937760000  2
| 35>       4       3.7700000000      3.0806943000  2
| 36>     p 4
| 37>       1       7.1100000000     99.6221237000  2
| 38>       2       3.5967980000     14.1687333000  2
| 39>       3       7.5400000000     21.0937760000  2
| 40>       4       3.7700000000      3.0806943000  2
| 41>     d 4
| 42>       1       5.3500000000     35.0451235000  2
| 43>       2       2.4918215000      6.1112595000  2
| 44>       3       7.5400000000     21.0937760000  2
| 45>       4       3.7700000000      3.0806943000  2
| 46>     f 2
| 47>       1       7.5400000000    -21.0937760000  2
| 48>       2       3.7700000000     -3.0806943000  2
| 49>   end
| 50>   NewGTO 40
| 51>     s 2 
| 52>      1      11.0000000000     -1.2721918001
| 53>      2       9.5000000000      2.2605685160
| 54>     s 1 
| 55>      1       3.6383667759      1.0000000000
| 56>     s 1 
| 57>      1       0.7682202670      1.0000000000
| 58>     s 1 
| 59>      1       0.3403682404      1.0000000000
| 60>     s 1 
| 61>      1       0.0752612981      1.0000000000
| 62>     s 1 
| 63>      1       0.0301314047      1.0000000000
| 64>     p 4 
| 65>      1       8.6066305543      0.0424669011
| 66>      2       4.4400979958     -0.2226938137
| 67>      3       1.1281026946      0.5167410683
| 68>      4       0.5434607631      0.6022871253
| 69>     p 1 
| 70>      1       0.2502240605      1.0000000000
| 71>     p 1 
| 72>      1       0.0850000000      1.0000000000
| 73>     p 1 
| 74>      1       0.0290000000      1.0000000000
| 75>     d 3 
| 76>      1       4.5567957795     -0.0166279255
| 77>      2       1.2904939797      0.3555819112
| 78>      3       0.5164698722      0.7231156937
| 79>     d 1 
| 80>      1       0.1934979779      1.0000000000
| 81>     d 1 
| 82>      1       0.0673098100      1.0000000000
| 83>   end
| 84>   NewAuxGTO 40
| 85>     S 1
| 86>      1 1310.72 1.0
| 87>     S 1
| 88>      1  655.36 1.0
| 89>     S 1
| 90>      1  327.68 1.0
| 91>     S 1
| 92>      1  163.84 1.0
| 93>     S 1
| 94>      1   81.82 1.0
| 95>     S 1
| 96>      1   40.96 1.0
| 97>     S 1
| 98>      1   20.48 1.0
| 99>     S 1
|100>      1   10.24 1.0
|101>     S 1
|102>      1    5.12 1.0
|103>     S 1
|104>      1    2.56 1.0
|105>     S 1
|106>      1    1.28 1.0
|107>     S 1
|108>      1    0.64 1.0
|109>     S 1
|110>      1    0.32 1.0
|111>     S 1
|112>      1    0.16 1.0
|113>     S 1
|114>      1    0.08 1.0
|115>     S 1
|116>      1    0.04 1.0
|117>     S 1
|118>      1    0.02 1.0
|119>     S 1
|120>      1    0.01 1.0
|121>   end
|122> end
|123> 
|124> * xyz 0 3
|125> 40  0.0 0.0 0.0
|126> *
|127> 
|128> 
|129>                          ****END OF INPUT****
================================================================================

                       ****************************
                       * Single Point Calculation *
                       ****************************

---------------------------------
CARTESIAN COORDINATES (ANGSTROEM)
---------------------------------
  Zr     0.000000    0.000000    0.000000

----------------------------
CARTESIAN COORDINATES (A.U.)
----------------------------
  NO LB      ZA    FRAG     MASS         X           Y           Z
   0 Zr   12.0000*   0    91.220    0.000000    0.000000    0.000000
* core charge reduced due to ECP

--------------------------------
INTERNAL COORDINATES (ANGSTROEM)
--------------------------------
 Zr     0   0   0     0.000000000000     0.00000000     0.00000000

---------------------------
INTERNAL COORDINATES (A.U.)
---------------------------
 Zr     0   0   0     0.000000000000     0.00000000     0.00000000

---------------------
BASIS SET INFORMATION
---------------------
There are 1 groups of distinct atoms

 Group   1 Type Zr  : 7s7p5d contracted to 6s4p3d pattern {211111/4111/311}

Atom   0Zr   basis set group =>   1
---------------------------------
AUXILIARY/J BASIS SET INFORMATION
---------------------------------
There are 1 groups of distinct atoms

 Group   1 Type Zr  : 18s contracted to 18s pattern {111111111111111111}

Atom   0Zr   basis set group =>   1
-------------------------
ECP PARAMETER INFORMATION
-------------------------

 Group 1, Type Zr ECP (replacing 28 core electrons, lmax=3)

Atom   0Zr   ECP group =>   1

------------------------------------------------------------------------------
                             ORCA STARTUP CALCULATIONS
------------------------------------------------------------------------------
------------------------------------------------------------------------------
                   ___                                                        
                  /   \      - P O W E R E D   B Y -                         
                 /     \                                                     
                 |  |  |   _    _      __       _____    __    __             
                 |  |  |  | |  | |    /  \     |  _  \  |  |  /  |          
                  \  \/   | |  | |   /    \    | | | |  |  | /  /          
                 / \  \   | |__| |  /  /\  \   | |_| |  |  |/  /          
                |  |  |   |  __  | /  /__\  \  |    /   |      \           
                |  |  |   | |  | | |   __   |  |    \   |  |\   \          
                \     /   | |  | | |  |  |  |  | |\  \  |  | \   \       
                 \___/    |_|  |_| |__|  |__|  |_| \__\ |__|  \__/        
                                                                              
                      - O R C A' S   B I G   F R I E N D -                    
                                      &                                       
                       - I N T E G R A L  F E E D E R -                       
                                                                              
 v1 FN, 2020, v2 2021, v3 2022-2024                                           
------------------------------------------------------------------------------


----------------------
SHARK INTEGRAL PACKAGE
----------------------

Number of atoms                             ...      1
Number of basis functions                   ...     33
Number of shells                            ...     13
Maximum angular momentum                    ...      2
Integral batch strategy                     ... SHARK/LIBINT Hybrid
RI-J (if used) integral strategy            ... SPLIT-RIJ (Revised 2003 algorithm where possible)
Printlevel                                  ...      1
Contraction scheme used                     ... SEGMENTED contraction
Prescreening option                         ... SCHWARTZ
   Thresh                                   ... 1.000e-10
   Tcut                                     ... 1.000e-11
   Tpresel                                  ... 1.000e-11 
Coulomb Range Separation                    ... NOT USED
Exchange Range Separation                   ... NOT USED
Multipole approximations                    ... NOT USED
Finite Nucleus Model                        ... NOT USED
CABS basis                                  ... NOT available
Auxiliary Coulomb fitting basis             ... AVAILABLE
   # of basis functions in Aux-J            ...     18
   # of shells in Aux-J                     ...     18
   Maximum angular momentum in Aux-J        ...      0
Auxiliary J/K fitting basis                 ... NOT available
Auxiliary Correlation fitting basis         ... NOT available
Auxiliary 'external' fitting basis          ... NOT available

Checking pre-screening integrals            ... done (  0.0 sec) Dimension = 13
   => SHARK Basis and OBASIS are compatible. Storing Pre-screening
Shell pair information
Shell pair cut-off parameter TPreSel        ...   1.0e-11
Total number of shell pairs                 ...        91
Shell pairs after pre-screening             ...        91
Total number of primitive shell pairs       ...       200
Primitive shell pairs kept                  ...       200
          la=0 lb=0:     21 shell pairs
          la=1 lb=0:     24 shell pairs
          la=1 lb=1:     10 shell pairs
          la=2 lb=0:     18 shell pairs
          la=2 lb=1:     12 shell pairs
          la=2 lb=2:      6 shell pairs

Checking whether 4 symmetric matrices of dimension 33 fit in memory
:Max Core in MB      =   4096.00
 MB in use           =      1.27
 MB left             =   4094.73
 MB needed           =      0.02
 Data fit in memory  = YES
Calculating RI/J V-Matrix + Cholesky decomp.... done (  0.0 sec)
Calculating Nuclear repulsion               ... done (  0.0 sec) ENN=      0.000000000000 Eh

Diagonalization of the overlap matrix:
Smallest eigenvalue                        ... 2.006e-02
Time for diagonalization                   ...    0.022 sec
Threshold for overlap eigenvalues          ... 1.000e-07
Number of eigenvalues below threshold      ... 0
Time for construction of square roots      ...    0.000 sec
Total time needed                          ...    0.023 sec

-------------------
DFT GRID GENERATION
-------------------

General Integration Accuracy     IntAcc      ... 4.388
Radial Grid Type                 RadialGrid  ... OptM3 with GC (2021)
Angular Grid (max. ang.)         AngularGrid ... 4 (Lebedev-302)
Angular grid pruning method      GridPruning ... 4 (adaptive)
Weight generation scheme         WeightScheme... mBecke (2022)
Basis function cutoff            BFCut       ... 1.0000e-10
Integration weight cutoff        WCut        ... 1.0000e-14
Partially contracted basis set               ... off
Rotationally invariant grid construction     ... off
Angular grids for H and He will be reduced by one unit

Total number of grid points                  ...    11810
Total number of batches                      ...      185
Average number of points per batch           ...       63
Average number of grid points per atom       ...    11810
Grids setup in   1.2 sec
Initializing property integral containers    ... done (  0.0 sec)

SHARK setup successfully completed in   1.4 seconds

Maximum memory used throughout the entire STARTUP-calculation: 6.4 MB
-------------------------------------------------------------------------------
                                 ORCA GUESS
                   Start orbitals & Density for SCF / CASSCF
-------------------------------------------------------------------------------

------------
SCF SETTINGS
------------
Hamiltonian:
 Ab initio Hamiltonian  Method          .... Hartree-Fock(GTOs)


General Settings:
 Integral files         IntName         .... run_atom40
 Hartree-Fock type      HFTyp           .... ROHF
 Total Charge           Charge          ....    0
 Multiplicity           Mult            ....    3
 Number of Electrons    NEL             ....   12
 Basis Dimension        Dim             ....   33
 Nuclear Repulsion      ENuc            ....      0.0000000000 Eh

Convergence Acceleration:
 AO-DIIS                CNVDIIS         .... on
   Start iteration      DIISMaxIt       ....    12
   Startup error        DIISStart       ....  0.200000
   # of expansion vecs  DIISMaxEq       ....     8
   Bias factor          DIISBfac        ....   1.050
   Max. coefficient     DIISMaxC        ....  10.000
 MO-DIIS                CNVKDIIS        .... off
 Trust-Rad. Augm. Hess. CNVTRAH         .... off
 SOSCF                 CNVSOSCF           .... on
   Start iteration     SOSCFMaxIt         ....   150
   Startup grad/error  SOSCFStart         ....  0.000100
   Hessian update      SOSCFHessUp        .... L-BFGS
   Autom. constraints  SOSCFAutoConstrain .... off
 Level Shifting         CNVShift        .... on
   Level shift para.    LevelShift      ....    0.3000
   Turn off err/grad.   ShiftErr        ....    0.0010
 Zerner damping         CNVZerner       .... off
 Static damping         CNVDamp         .... on
   Fraction old density DampFac         ....    0.7000
   Max. Damping (<1)    DampMax         ....    0.9800
   Min. Damping (>=0)   DampMin         ....    0.0000
   Turn off err/grad.   DampErr         ....    0.1000

SCF Procedure:
 Maximum # iterations   MaxIter         ....  1000
 SCF integral mode      SCFMode         .... Direct
   Integral package                     .... SHARK and LIBINT hybrid scheme
 Reset frequency        DirectResetFreq ....    20
 Integral Threshold     Thresh          ....  1.000e-10 Eh
 Primitive CutOff       TCut            ....  1.000e-11 Eh

Convergence Tolerance:
 Convergence Check Mode ConvCheckMode   .... Total+1el-Energy
 Convergence forced     ConvForced      .... -1
 Energy Change          TolE            ....  1.000e-06 Eh
 1-El. energy change                    ....  1.000e-03 Eh
 Orbital Gradient       TolG            ....  5.000e-05
 Orbital Rotation angle TolX            ....  5.000e-05
 DIIS Error             TolErr          ....  1.000e-06


--------------------
INITIAL GUESS: HCORE
--------------------

Orthogonalizing HCORE                      ... done
Diagonalizing the Hamiltonian (no sym.)    ... done
Back transforming and storing orbitals     ... done
AVERAGE-CONFIGURATION (SAHF) CASE FOUND

-------------------
FINAL ROHF SETTINGS
-------------------
Number of operators             ... 3
  operator   0:   4 orbitals   8 electrons n(mue)= 2.000
  operator   1:   5 orbitals   2 electrons n(mue)= 0.400
  operator   2:   1 orbitals   2 electrons n(mue)= 2.000
Vector coupling coefficients a and b (Zerner convention):
   1.000    1.000    1.000           1.000    1.000    1.000 
   1.000    0.625    1.000           1.000    1.250    1.000 
   1.000    1.000    1.000           1.000    1.000    1.000 


   => ROHF data were saved in the ROHF file

Making the density                         ... done

                      -----------------
                      INTIAL GUESS DONE 
                      -----------------

             **** ENERGY FILE WAS UPDATED (run_atom40.en.tmp) ****
Finished Guess after   0.1 sec
Maximum memory used throughout the entire GUESS-calculation: 3.7 MB

-------------------------------------------------------------------------------------------
                                      ORCA LEAN-SCF
                              memory conserving SCF solver
-------------------------------------------------------------------------------------------

----------------------------------------D-I-I-S--------------------------------------------
Iteration    Energy (Eh)           Delta-E    RMSDP     MaxDP     DIISErr   Damp  Time(sec)
-------------------------------------------------------------------------------------------
               ***  Starting incremental Fock matrix formation  ***
    1    -42.9843827042273858     0.00e+00  1.10e-01  2.02e+00  6.87e-01  0.700   0.1
    2    -43.9682306277945898    -9.84e-01  7.89e-02  1.42e+00  3.96e-01  0.700   0.1
                               ***Turning on AO-DIIS***
    3    -44.5607988045139791    -5.93e-01  5.47e-02  9.91e-01  9.22e-02  0.700   0.0
    4    -44.9179334480192907    -3.57e-01  1.28e-01  2.31e+00  1.15e-01  0.000   0.0
    5    -45.5273861791567072    -6.09e-01  1.33e-03  2.90e-02  2.53e-01  0.700   0.0
    6    -45.5286731147037216    -1.29e-03  8.77e-04  1.53e-02  2.55e-01  0.700   0.0
    7    -45.5394591961806583    -1.08e-02  5.76e-04  1.00e-02  2.57e-01  0.700   0.0
    8    -45.5435249319547566    -4.07e-03  4.48e-04  7.06e-03  2.58e-01  0.700   0.1
    9    -45.5469436714873979    -3.42e-03  5.39e-04  9.38e-03  2.58e-01  0.700   0.1
   10    -45.5529956823734352    -6.05e-03  1.49e-03  3.25e-02  2.59e-01  0.700   0.1
   11    -45.5917087858389820    -3.87e-02  3.45e-04  7.10e-03  2.56e-01  0.700   0.1
   12    -45.6009998429128416    -9.29e-03  8.46e-02  1.41e+00  2.61e-01  0.700   0.1
   13    -45.5368023778279465     6.42e-02  4.66e-02  1.01e+00  4.19e-02  0.700   0.1
   14    -45.7265218645396772    -1.90e-01  1.09e-01  2.34e+00  2.64e-02  0.000   0.0
   15    -46.1788678047963614    -4.52e-01  1.28e-03  1.94e-02  8.89e-02  0.000   0.0
   16    -46.1712389895344231     7.63e-03  4.35e-05  5.65e-04  9.63e-02  0.000   0.0
   17    -46.1716195450651554    -3.81e-04  4.11e-05  4.98e-04  9.59e-02  0.000   0.0
   18    -46.1720084517437712    -3.89e-04  4.24e-05  5.60e-04  9.56e-02  0.000   0.0
   19    -46.1724491894414086    -4.41e-04  4.57e-05  6.48e-04  9.52e-02  0.000   0.0
   20    -46.1730069335873594    -5.58e-04  6.10e-04  1.04e-02  9.48e-02  0.000   0.1
               *** Restarting incremental Fock matrix formation ***
                             ****Resetting DIIS****
   21    -46.1808576779994269    -7.85e-03  2.48e-02  3.99e-01  8.74e-02  0.000   0.1
   22    -46.2143242754589991    -3.35e-02  4.02e-02  1.00e+00  6.22e-02  0.000   0.0
   23    -45.8557716613270046     3.59e-01  3.84e-03  1.05e-01  1.02e-01  0.000   0.0
   24    -45.8863964714758126    -3.06e-02  3.47e-04  9.74e-03  9.58e-02  0.700   0.0
   25    -45.8889253978144680    -2.53e-03  1.49e-03  4.19e-02  9.26e-02  0.000   0.0
   26    -45.8997953094070610    -1.09e-02  4.47e-04  1.26e-02  9.21e-02  0.000   0.0
   27    -45.9029503883398817    -3.16e-03  3.59e-04  1.01e-02  9.12e-02  0.000   0.0
   28    -45.9054631662924635    -2.51e-03  3.15e-04  8.80e-03  9.04e-02  0.000   0.1
   29    -45.9076503457200573    -2.19e-03  2.99e-03  7.81e-02  8.97e-02  0.000   0.1
   30    -45.9277322923487787    -2.01e-02  1.62e-02  4.22e-01  8.28e-02  0.000   0.1
   31    -46.0098404992238557    -8.21e-02  5.15e-03  1.10e-01  2.72e-02  0.000   0.1
   32    -46.0215252274069755    -1.17e-02  5.02e-03  9.80e-02  1.54e-02  0.000   0.1
   33    -46.0290769240796607    -7.55e-03  2.81e-03  6.50e-02  1.34e-02  0.000   0.0
   34    -46.0328933076678339    -3.82e-03  3.44e-03  7.91e-02  1.24e-02  0.000   0.0
   35    -46.0373342702289392    -4.44e-03  8.62e-03  1.81e-01  1.11e-02  0.000   0.0
   36    -46.0461935763656527    -8.86e-03  9.18e-03  1.96e-01  7.63e-03  0.000   0.0
   37    -46.0513769798308772    -5.18e-03  1.94e-03  4.52e-02  3.70e-03  0.000   0.1
   38    -46.0519968007343010    -6.20e-04  1.75e-03  4.09e-02  2.84e-03  0.000   0.0
   39    -46.0524924090160752    -4.96e-04  2.86e-03  6.75e-02  2.07e-03  0.000   0.0
   40    -46.0529727990503233    -4.80e-04  1.50e-03  3.60e-02  8.25e-04  0.000   0.1
               *** Restarting incremental Fock matrix formation ***
                             ****Resetting DIIS****
   41    -46.0530554157293608    -8.26e-05  6.37e-05  1.93e-03  2.27e-04  0.000   0.1
   42    -46.0530565506837988    -1.13e-06  8.68e-05  2.64e-03  1.97e-04  0.000   0.0
   43    -46.0530578831980790    -1.33e-06  1.14e-04  3.45e-03  1.72e-04  0.000   0.0
   44    -46.0530593488777598    -1.47e-06  2.17e-04  6.52e-03  1.38e-04  0.000   0.0
                              *** Initializing SOSCF ***
---------------------------------------S-O-S-C-F--------------------------------------
Iteration    Energy (Eh)           Delta-E    RMSDP     MaxDP     MaxGrad    Time(sec)
--------------------------------------------------------------------------------------
   45    -46.0530612749128281    -1.93e-06  1.56e-04  4.62e-03  9.69e-05     0.1
               *** Restarting incremental Fock matrix formation ***
   46    -46.0530620039620118    -7.29e-07  4.05e-05  9.53e-04  6.40e-05     0.0
   47    -46.0530622167847952    -2.13e-07  1.25e-04  2.91e-03  4.77e-05     0.0
                 **** Energy Check signals convergence ****

               *****************************************************
               *                     SUCCESS                       *
               *           SCF CONVERGED AFTER  47 CYCLES          *
               *****************************************************

             **** ENERGY FILE WAS UPDATED (run_atom40.en.tmp) ****

----------------
TOTAL SCF ENERGY
----------------

Total Energy       :        -46.05306250790234 Eh           -1253.16754 eV

Components:
Nuclear Repulsion  :          0.00000000000000 Eh               0.00000 eV
Electronic Energy  :        -46.05306250790234 Eh           -1253.16754 eV
One Electron Energy:        -74.89840050626744 Eh           -2038.08909 eV
Two Electron Energy:         28.84533799836510 Eh             784.92155 eV

Virial components:
Potential Energy   :        -60.51602035655703 Eh           -1646.72463 eV
Kinetic Energy     :         14.46295784865469 Eh             393.55709 eV
Virial Ratio       :          4.18420775264764

---------------
SCF CONVERGENCE
---------------

  Last Energy change         ...    2.1282e-07  Tolerance :   1.0000e-06
  Last MAX-Density change    ...    2.9051e-03  Tolerance :   1.0000e-05
  Last RMS-Density change    ...    1.2470e-04  Tolerance :   1.0000e-06
  Last DIIS Error            ...    9.6874e-05  Tolerance :   1.0000e-06
  Last Orbital Gradient      ...    4.7675e-05  Tolerance :   5.0000e-05
  Last Orbital Rotation      ...    1.2990e-03  Tolerance :   5.0000e-05


----------------
ORBITAL ENERGIES
----------------

  NO   OCC          E(Eh)            E(eV) 
   0   2.0000      -2.805880       -76.3519 
   1   2.0000      -1.768244       -48.1164 
   2   2.0000      -1.768244       -48.1164 
   3   2.0000      -1.756761       -47.8039 
   4   0.4000      -0.401715       -10.9312 
   5   0.4000      -0.460876       -12.5411 
   6   0.4000      -0.438150       -11.9227 
   7   0.4000      -0.223138        -6.0719 
   8   0.4000      -0.223138        -6.0719 
   9   2.0000      -0.155329        -4.2267 
  10   0.0000      -0.093406        -2.5417 
  11   0.0000      -0.082013        -2.2317 
  12   0.0000      -0.082013        -2.2317 
  13   0.0000       0.090126         2.4525 
  14   0.0000       0.124083         3.3765 
  15   0.0000       0.124083         3.3765 
  16   0.0000       0.142711         3.8834 
  17   0.0000       0.171581         4.6690 
  18   0.0000       0.178770         4.8646 
  19   0.0000       0.183271         4.9871 
  20   0.0000       0.188223         5.1218 
*Only the first 10 virtual orbitals were printed.

Warning: MO coefficients are modified such that the real solid harmonic m components
have the correct order within each shell (0, +1, -1, +2, -2, ...) and all s orbitals
come before all p orbitals etc. (with increasing orbital energy within each block of given angular momentum).

CleanUpVectors: The p-vectors have cracked symmetry
CleanUpVectors: The p-vectors have cracked symmetry
CleanUpVectors: The p-vectors have cracked symmetry
CleanUpVectors: The d-vectors have cracked symmetry at i=5
CleanUpVectors: The d-vectors have cracked symmetry at i=6
CleanUpVectors: The p-vectors have cracked symmetry
CleanUpVectors: The p-vectors have cracked symmetry
CleanUpVectors: The p-vectors have cracked symmetry
CleanUpVectors: The d-vectors have cracked symmetry at i=10
CleanUpVectors: The d-vectors have cracked symmetry at i=11
CleanUpVectors: The d-vectors have cracked symmetry at i=12
CleanUpVectors: The p-vectors have cracked symmetry
CleanUpVectors: The p-vectors have cracked symmetry
CleanUpVectors: The p-vectors have cracked symmetry
CleanUpVectors: The d-vectors have cracked symmetry at i=17
CleanUpVectors: The d-vectors have cracked symmetry at i=18
CleanUpVectors: The d-vectors have cracked symmetry at i=19
CleanUpVectors: The d-vectors have cracked symmetry at i=20
CleanUpVectors: The d-vectors have cracked symmetry at i=21
CleanUpVectors: The d-vectors have cracked symmetry at i=22
CleanUpVectors: The d-vectors have cracked symmetry at i=23
CleanUpVectors: The d-vectors have cracked symmetry at i=24
CleanUpVectors: The d-vectors have cracked symmetry at i=25
CleanUpVectors: The d-vectors have cracked symmetry at i=26
CleanUpVectors: The p-vectors have cracked symmetry
CleanUpVectors: The p-vectors have cracked symmetry
CleanUpVectors: The p-vectors have cracked symmetry
--------------------------
ATOM BASIS FOR ELEMENT Zr
--------------------------
 NewGTO Zr
 S 7
    1         11.000000000000        -0.212499278554
    2          9.500000000000         0.377591789803
    3          3.638366775900        -0.626135463228
    4          0.768220267000         0.901682105726
    5          0.340368240400         0.374931711923
    6          0.075261298100        -0.002379328420
    7          0.030131404700         0.002553351931
 P 19
    1          8.606630554300         0.011377764925
    2          4.440097995800        -0.059664298476
    3          1.128102694600         0.138445665919
    4          0.543460763100         0.161365231547
    5          8.606630554300        -0.023794386000
    6          4.440097995800         0.124776294614
    7          1.128102694600        -0.289532226809
    8          0.543460763100        -0.337464047788
    9          8.606630554300        -0.026546592003
   10          4.440097995800         0.139208693378
   11          1.128102694600        -0.323021316748
   12          0.543460763100        -0.376497228902
   13          0.250224060500         0.046114046676
   14          0.250224060500        -0.096438574171
   15          0.250224060500        -0.107593256740
   16          0.085000000000         0.000537532099
   17          0.085000000000        -0.001124144006
   18          0.085000000000        -0.001254169462
   19          0.029000000000         0.000428768219
 S 7
    1         11.000000000000        -0.086067880027
    2          9.500000000000         0.152934753873
    3          3.638366775900        -0.268853759730
    4          0.768220267000         0.586035070986
    5          0.340368240400         0.204352525240
    6          0.075261298100        -1.110537160421
    7          0.030131404700        -0.072343287011
 S 19
    1         11.000000000000        -0.000003224385
    2          9.500000000000         0.000005729437
    3          3.638366775900        -0.000010732156
    4          0.768220267000         0.000028295210
    5          0.340368240400        -0.000003256000
    6          0.075261298100        -0.000033125549
    7          0.030131404700        -0.000002175419
    8          8.606630554300        -0.000000806114
    9          4.440097995800         0.000003036222
   10          1.128102694600        -0.000003551210
   11          0.543460763100        -0.000002872875
   12          8.606630554300        -0.000000273067
   13          4.440097995800         0.000001028506
   14          1.128102694600        -0.000001202956
   15          0.543460763100        -0.000000973173
   16          8.606630554300        -0.000000100689
   17          4.440097995800         0.000000379246
   18          1.128102694600        -0.000000443571
   19          0.543460763100        -0.000000358843
 S 7
    1         11.000000000000        -0.039273862265
    2          9.500000000000         0.069786062551
    3          3.638366775900        -0.127178313216
    4          0.768220267000         0.208535264983
    5          0.340368240400         0.428381324215
    6          0.075261298100        -2.242542699950
    7          0.030131404700         2.160473094328
 S 7
    1         11.000000000000        -0.290203582273
    2          9.500000000000         0.515665233234
    3          3.638366775900        -0.889821449854
    4          0.768220267000         3.509869462829
    5          0.340368240400        -3.972522157378
    6          0.075261298100         2.117560064225
    7          0.030131404700        -0.936199492709
 S 7
    1         11.000000000000        -2.296734306542
    2          9.500000000000         4.081086879020
    3          3.638366775900        -3.170381612361
    4          0.768220267000         2.031791605466
    5          0.340368240400        -1.337978567048
    6          0.075261298100         0.458993375538
    7          0.030131404700        -0.196849973711
 S 7
    1         11.000000000000        -2.618176557798
    2          9.500000000000         4.652260370978
    3          3.638366775900        -1.536747222008
    4          0.768220267000         0.680128041548
    5          0.340368240400        -0.429781525714
    6          0.075261298100         0.145922431925
    7          0.030131404700        -0.062703803439
 S 19
    1         11.000000000000        -0.007253431269
    2          9.500000000000         0.012888684205
    3          3.638366775900        -0.022871684357
    4          0.768220267000         0.043481730532
    5          0.340368240400         0.039703995569
    6          0.075261298100        -0.105871374912
    7          0.030131404700        -0.046724910692
    8          8.606630554300        -0.000000332066
    9          4.440097995800         0.000001250726
   10          1.128102694600        -0.000001462868
   11          0.543460763100        -0.000001183438
   12          8.606630554300        -0.000000112517
   13          4.440097995800         0.000000423795
   14          1.128102694600        -0.000000495677
   15          0.543460763100        -0.000000400995
   16          8.606630554300        -0.000000041511
   17          4.440097995800         0.000000156351
   18          1.128102694600        -0.000000182871
   19          0.085000000000         0.000001619957
 P 19
    1          8.606630554300         0.004633128875
    2          4.440097995800        -0.024295842450
    3          1.128102694600         0.056376328441
    4          0.543460763100         0.065709383045
    5          8.606630554300        -0.009689350435
    6          4.440097995800         0.050810356883
    7          1.128102694600        -0.117900886695
    8          0.543460763100        -0.137419281094
    9          8.606630554300        -0.010809847014
   10          4.440097995800         0.056686171927
   11          1.128102694600        -0.131535189741
   12          0.543460763100        -0.153310731748
   13          0.250224060500         0.003015494618
   14          0.250224060500        -0.006306361183
   15          0.250224060500        -0.007035641862
   16          0.085000000000        -0.253108702139
   17          0.085000000000         0.529331037289
   18          0.085000000000         0.590543976188
   19          0.029000000000        -0.083357125238
 D 19
    1          4.440097995800         0.000000005693
    2          4.556795779500        -0.000783938717
    3          1.290493979700         0.016764233595
    4          0.516469872200         0.034091949067
    5          4.556795779500         0.003049079328
    6          1.290493979700        -0.065203410653
    7          0.516469872200        -0.132598447899
    8          4.556795779500        -0.001022583208
    9          1.290493979700         0.021867555965
   10          0.516469872200         0.044470127426
   11          4.556795779500        -0.009246746196
   12          1.290493979700         0.197738177555
   13          0.516469872200         0.402122759706
   14          4.556795779500        -0.000558549516
   15          1.290493979700         0.011944370602
   16          0.516469872200         0.024290217138
   17          0.193497977900         0.033532065511
   18          0.193497977900        -0.130420816740
   19          0.193497977900         0.043739805641
 P 19
    1          8.606630554300        -0.008913875014
    2          4.440097995800         0.046743811541
    3          1.128102694600        -0.108464832098
    4          0.543460763100        -0.126421095454
    5          8.606630554300        -0.003019860149
    6          4.440097995800         0.015835960618
    7          1.128102694600        -0.036745929630
    8          0.543460763100        -0.042829187927
    9          8.606630554300        -0.001113674269
   10          4.440097995800         0.005840039270
   11          1.128102694600        -0.013551288567
   12          0.543460763100        -0.015794693195
   13          0.250224060500        -0.208692087663
   14          0.250224060500        -0.070701116845
   15          0.250224060500        -0.026073397679
   16          0.085000000000         1.434351145820
   17          0.085000000000         0.485932308659
   18          0.085000000000         0.179203765008
   19          0.029000000000        -1.335894247559
 D 19
    1         11.000000000000         0.000026180692
    2          9.500000000000        -0.000053866069
    3          3.638366775900         0.000295525238
    4          0.768220267000         0.000588558223
    5          0.340368240400        -0.034672036711
    6          0.075261298100         0.525121546382
    7          0.030131404700        -1.169625141428
    8          8.606630554300         0.000000001180
    9          4.440097995800        -0.000000008612
   10          1.128102694600         0.000000039647
   11          4.440097995800        -0.000000002919
   12          4.556795779500        -0.003487828126
   13          1.290493979700         0.074585888123
   14          0.516469872200         0.151678768046
   15          4.556795779500        -0.002189317276
   16          1.290493979700         0.046817723678
   17          0.516469872200         0.095209091543
   18          4.556795779500        -0.000807331052
   19          1.290493979700         0.017264469846
 D 19
    1         11.000000000000        -0.000131378297
    2          9.500000000000         0.000270307309
    3          3.638366775900        -0.001239192197
    4          0.768220267000         0.020784692855
    5          0.340368240400        -0.041934875897
    6          0.075261298100        -0.012358702043
    7          0.030131404700         0.121333349591
    8          8.606630554300        -0.000000001858
    9          4.440097995800         0.000000013567
   10          1.128102694600        -0.000000062456
   11          0.543460763100        -0.000000104880
   12          4.440097995800         0.000000004604
   13          0.250224060500         0.000000470378
   14          4.556795779500        -0.014384546919
   15          1.290493979700         0.307608106934
   16          0.516469872200         0.625555582629
   17          4.556795779500        -0.009029232958
   18          1.290493979700         0.193086739051
   19          0.516469872200         0.392663537866
 P 19
    1         11.000000000000         0.000000009977
    2          9.500000000000        -0.000000019076
    3          3.638366775900         0.000000053046
    4          0.768220267000        -0.000000456288
    5          0.340368240400         0.000000778943
    6          8.606630554300        -0.056100913727
    7          4.440097995800         0.294189736152
    8          1.128102694600        -0.682640958976
    9          0.543460763100        -0.795651605835
   10          8.606630554300        -0.019005978142
   11          4.440097995800         0.099666178738
   12          1.128102694600        -0.231266449744
   13          0.543460763100        -0.269552419460
   14          8.606630554300        -0.007009089085
   15          4.440097995800         0.036755231450
   16          1.128102694600        -0.085287225763
   17          0.543460763100        -0.099406455536
   18          0.250224060500         2.305360661645
   19          0.250224060500         0.781014629415
 end
-------------------------------------------
RADIAL EXPECTATION VALUES <R**-3> TO <R**3>
-------------------------------------------
   0 :     0.000008     0.891011     0.897213     1.230671     1.669753     2.494301
   1 :     0.765288     0.743474     0.814503     1.371856     2.098527     3.572074
   2 :     0.765288     0.743474     0.814503     1.371856     2.098527     3.572073
   3 :     0.763009     0.741563     0.813011     1.378168     2.132615     3.740551
   4 :     0.004945     0.169579     0.352327     3.393484    12.948415    55.115090
   5 :     0.342259     0.407748     0.584500     2.030911     4.865534    68.195359
   6 :     0.337806     0.403668     0.580002     2.066171     5.110471    70.403094
   7 :     0.066097     0.108017     0.282202     4.202180    19.922001   105.256142
   8 :     0.066097     0.108017     0.282203     4.202176    19.921967   105.255876
   9 :     0.057522     0.094929     0.260728     4.629491    24.532059   146.458954
  10 :     0.282982     0.350486     0.533799     2.308665     6.546348   112.613015
  11 :     0.279298     0.346376     0.529493     2.342355     6.785718   119.865280
  12 :     0.279298     0.346376     0.529493     2.342356     6.785722   119.865380
  13 :     0.000074     0.055315     0.187446     6.508387    46.645395   358.794964
  14 :     0.023493     0.045336     0.171938     7.140534    56.617195   478.559621
  15 :     0.023493     0.045336     0.171938     7.140532    56.617169   478.559394
  16 :     0.033435     0.058922     0.192962     6.719756    51.990670   436.477251
  17 :     0.045022     0.076598     0.229327     5.157385    28.818547   848.933654
  18 :     0.076841     0.109927     0.261621     4.947886    27.471436   811.914018
  19 :     0.049355     0.081003     0.233523     5.127755    28.619637   837.854761
  20 :     0.083821     0.117075     0.268586     4.895905    27.092477   799.922253
  21 :     0.083821     0.117075     0.268586     4.895905    27.092479   799.922303
  22 :     0.344793     0.356972     0.494499     2.947253    11.652460   284.634964
  23 :     0.372251     0.380904     0.512906     2.878998    11.318757   277.236943
  24 :     0.339702     0.352565     0.490706     2.972284    11.841215   290.898626
  25 :     0.368955     0.377866     0.510247     2.897288    11.458343   281.976393
  26 :     0.368955     0.377866     0.510247     2.897288    11.458342   281.976342
  27 :     0.301233     0.317600     0.467443     3.135729    13.977087    83.573794
  28 :     0.301233     0.317600     0.467443     3.135728    13.977079    83.573755
  29 :     0.302145     0.319012     0.469386     3.122880    13.959432    84.284608
  30 :     0.000185     0.478930     0.573478     2.660861    10.702827    60.453943
  31 :     0.000000     4.100791     1.787455     0.727680     0.957228     3.154769
  32 :     0.000000    41.190602     5.102421     0.277866     0.152342     0.337793
Making the total density                ... o.k.
Making exponents                        ... done
Making rho(0)                           ... done (         0.000303386)
Integral calculation                    ... Solving the equation system             ... done
atomic density will be written to file run_atom40.adf

-------
TIMINGS
-------

Total SCF time: 0 days 0 hours 0 min 2 sec 

Total time                  ....       2.664 sec
Sum of individual times     ....       2.515 sec  ( 94.4%)

SCF preparation             ....       0.060 sec  (  2.2%)
Fock matrix formation       ....       2.048 sec  ( 76.9%)
  Startup                   ....       0.008 sec  (  0.4% of F)
  Coulomb+Exchange Fock     ....       2.002 sec  ( 97.8% of F)
Diagonalization             ....       0.000 sec  (  0.0%)
Density matrix formation    ....       0.057 sec  (  2.1%)
Total Energy calculation    ....       0.007 sec  (  0.3%)
Population analysis         ....       0.000 sec  (  0.0%)
Orbital Transformation      ....       0.009 sec  (  0.3%)
Orbital Orthonormalization  ....       0.000 sec  (  0.0%)
DIIS solution               ....       0.329 sec  ( 12.4%)
SOSCF solution              ....       0.006 sec  (  0.2%)
Finished LeanSCF after   2.7 sec

Maximum memory used throughout the entire LEANSCF-calculation: 6.0 MB

-------------------------   --------------------
FINAL SINGLE POINT ENERGY       -46.053062507902
-------------------------   --------------------


------------------------------------------------------------------------------
                              ORCA PROPERTY CALCULATIONS
------------------------------------------------------------------------------

GBWName                                 ... run_atom40.gbw
Number of atoms                         ...      1
Number of basis functions               ...     33
Max core memory                         ...   4096 MB

Electric properties:
Dipole moment                           ... YES
Quadrupole moment                       ...  NO
Static polarizability (Dipole/Dipole)   ...  NO
Static polarizability (Dipole/Quad.)    ...  NO
Static polarizability (Quad./Quad.)     ...  NO
Static polarizability (Velocity)        ...  NO
Static hyperpolarizability              ...  NO

Atomic electric properties:
Dipole moment                           ...  NO
Quadrupole moment                       ...  NO
Static polarizability                   ...  NO

Choice of electric origin               ... Center of mass
Position of electric origin             ...     0.000000     0.000000     0.000000

General magnetic properties:
Magnetizability                         ...  NO

EPR properties:
g-Tensor (aka g-matrix)                 ...  NO
Zero-Field splitting spin-orbit         ...  NO
Zero-field splitting spin-spin          ...  NO
Hyperfine couplings                     ...  NO (   0 nuclei)
Quadrupole couplings                    ...  NO (   0 nuclei)
Contact density                         ...  NO (   0 nuclei)

NMR properties:
Chemical shifts                         ...  NO (   0 nuclei)
Spin-rotation constants                 ...  NO (   0 nuclei)
Spin-spin couplings                     ...  NO (   0 nuclei,    0 pairs)

Choice of magnetic origin               ... GIAO
Position of magnetic origin             ...     0.000000     0.000000     0.000000

Properties with geometric perturbations:
SCF Hessian                             ...  NO
IR spectrum                             ...  NO
VCD spectrum                            ...  NO
X-ray spectroscopy properties:
SCF XES/XAS/RIXS spectra                ...  NO

SCF SOC stabilization energy            ...  NO
Diagonal Born-Oppenheimer correction    ...  NO

-------------
DIPOLE MOMENT
-------------

Method             : SCF
Type of density    : Electron Density
Multiplicity       :   3
Irrep              :   0
Energy             :   -46.0530625079023395 Eh
Basis              : AO
                                X                 Y                 Z
Electronic contribution:      0.000000645       0.000000241       0.000001894
Nuclear contribution   :      0.000000000       0.000000000       0.000000000
                        -----------------------------------------
Total Dipole Moment    :      0.000000645       0.000000241       0.000001894
                        -----------------------------------------
Magnitude (a.u.)       :      0.000002015
Magnitude (Debye)      :      0.000005122



--------------------
Rotational spectrum 
--------------------
 
Rotational constants in cm-1:             0.000000             0.000000             0.000000 
Rotational constants in MHz :             0.000000             0.000000             0.000000 

Dipole components along the rotational axes: 
x,y,z [a.u.] :     0.000001     0.000000     0.000002 
x,y,z [Debye]:     0.000002     0.000001     0.000005 

 

Dipole moment calculation done in   0.0 sec 

Maximum memory used throughout the entire PROP-calculation: 1.6 MB

--------------------------------
SUGGESTED CITATIONS FOR THIS RUN
--------------------------------

Below you find a list of papers that are relevant to this ORCA run
We neither can nor want to force you to cite these papers, but we appreciate if you do
You receive ORCA, which is the product of decades of hard work by many enthusiastic individuals, for free
The only thing we kindly ask in return is that you cite our papers,
We deeply appreciate it, if you show your appreciation for ORCA by not just citing the generic ORCA reference.

Please note that relegating all ORCA citations to the supporting information does *not* help us.
SI sections are not indexed - citations you put there will not count into any citation statistics
But we need these citations in order to attract the funding resources that allow us to do what we are doing

Therefore, if you are a happy ORCA user, please consider citing a few of the papers listed below in the main body of your paper

In addition to the list printed below, the program has created the file run_atom40.bibtex that contains the list in bibtex format
You can import this file easily into all common literature databanks and citation aid programs


List of essential papers. We consider these as the minimum necessary citations

  1. Neese, F.
     Software update: the ORCA program system, version 6.0
     WIRES Comput. Molec. Sci. 2025 15(1), e70019
     doi.org/10.1002/wcms.7019

List of papers to cite with high priority. The work reported in these papers was absolutely
necessary for this run to complete.
Our perspective: the developers of density functionals and basis sets usually get cited in chemistry papers
Good! But without the algorithms to do something with them, the functionals or basis sets would not do anything.
Hence, in our opinion, the algorithm design and method developments papers are equally worthy of getting cited

  1. Neese, F.
     The SHARK Integral Generation and Digestion System
     J. Comp. Chem. 2022 44(3), 381
     doi.org/10.1002/jcc.26942

List of suggested additional citations. These are papers that are important in the 'surrounding' of 
of this run, or papers that preceded the highly important papers. If you like your results we are grateful for a citation.

  1. Neese, F.
     The ORCA program system
     WIRES Comput. Molec. Sci. 2012 2(1), 73-78
     doi.org/10.1002/wcms.81
  2. Neese, F.
     Software update: the ORCA program system, version 4.0
     WIRES Comput. Molec. Sci. 2018 8(1), 1-6
     doi.org/10.1002/wcms.1327
  3. Neese, F.; Wennmohs, F.; Becker, U.; Riplinger, C.
     The ORCA quantum chemistry program package
     J. Chem. Phys. 2020 152(22), 224108
     doi.org/10.1063/5.0004608
  4. Neese, F.
     Software update: The ORCA program system—Version 5.0
     WIRES Comput. Molec. Sci. 2022 12(1), e1606
     doi.org/10.1002/wcms.1606

List of optional additional citations

  1. Neese, F.
     Approximate second-order SCF convergence for spin unrestricted wavefunctions
     Chem. Phys. Lett. 2000 325(1-3), 93-98
     doi.org/10.1016/s0009-2614(00)00662-x

Timings for individual modules:

Sum of individual times          ...        5.015 sec (=   0.084 min)
Startup calculation              ...        1.987 sec (=   0.033 min)  39.6 %
SCF iterations                   ...        2.897 sec (=   0.048 min)  57.8 %
Property calculations            ...        0.131 sec (=   0.002 min)   2.6 %
                             ****ORCA TERMINATED NORMALLY****
TOTAL RUN TIME: 0 days 0 hours 0 minutes 5 seconds 225 msec
