
                                 *****************
                                 * O   R   C   A *
                                 *****************

                                            #,                                       
                                            ###                                      
                                            ####                                     
                                            #####                                    
                                            ######                                   
                                           ########,                                 
                                     ,,################,,,,,                         
                               ,,#################################,,                 
                          ,,##########################################,,             
                       ,#########################################, ''#####,          
                    ,#############################################,,   '####,        
                  ,##################################################,,,,####,       
                ,###########''''           ''''###############################       
              ,#####''   ,,,,##########,,,,          '''####'''          '####       
            ,##' ,,,,###########################,,,                        '##       
           ' ,,###''''                  '''############,,,                           
         ,,##''                                '''############,,,,        ,,,,,,###''
      ,#''                                            '''#######################'''  
     '                                                          ''''####''''         
             ,#######,   #######,   ,#######,      ##                                
            ,#'     '#,  ##    ##  ,#'     '#,    #''#        ,####,    ,#,          
            ##       ##  ##   ,#'  ##            #'  '#       #'       ,# #          
            ##       ##  #######   ##           ,######,      #####,      #          
            '#,     ,#'  ##    ##  '#,     ,#' ,#      #,     #,   #      #          
             '#######'   ##     ##  '#######'  #'      '#     '####' #    #          



                #########################################################
                #                        -***-                          #
                #          Department of theory and spectroscopy        #
                #                                                       #
                #                      Frank Neese                      #
                #                                                       #
                #     Directorship, Architecture, Infrastructure        #
                #                    SHARK, DRIVERS                     #
                #        Core code/Algorithms in most modules           #
                #                                                       #
                #        Max Planck Institute fuer Kohlenforschung      #
                #                Kaiser Wilhelm Platz 1                 #
                #                 D-45470 Muelheim/Ruhr                 #
                #                      Germany                          #
                #                                                       #
                #                  All rights reserved                  #
                #                        -***-                          #
                #########################################################


                         Program Version 6.1.0  -  RELEASE   -
                                (GIT: $679e74b$)
                          ($2025-06-10 18:02:51 +0200$)


 With contributions from (in alphabetic order):
[Max-Planck-Institut fuer Kohlenforschung]                               
  Daniel Aravena         : Magnetic Suceptibility                        
  Michael Atanasov       : Ab Initio Ligand Field Theory (pilot matlab implementation)
  Alexander A. Auer      : GIAO ZORA, VPT2 properties, NMR spectrum      
  Ute Becker             : All parallelization in ORCA, NUMFREQ, NUMCALC 
  Giovanni Bistoni       : ED, misc. LED, open-shell LED, HFLD           
  Dmytro Bykov           : pre 5.0 version of the SCF Hessian            
  Marcos Casanova-Páez   : Triplet and SCS-CIS(D). UHF-(DLPNO)-IP/EA/STEOM-CCSD. UHF-CVS-IP/STEOM-CCSD   
  Vijay G. Chilkuri      : MRCI spin determinant printing, contributions to CSF-ICE 
  Pauline Colinet        : FMM embedding                                 
  Dipayan Datta          : RHF DLPNO-CCSD density                        
  Achintya Kumar Dutta   : EOM-CC, STEOM-CC                              
  Nicolas Foglia         : Exact transition moments, OPA infrastructure, MCD improvements    
  Dmitry Ganyushin       : Spin-Orbit,Spin-Spin,Magnetic field MRCI      
  Miquel Garcia-Rates    : C-PCM and meta-GGA Hessian, CCSD/C-PCM, Gaussian charge scheme 
  Tiago L. C. Gouveia    : GS-ROHF, GS-ROCIS                             
  Yang Guo               : DLPNO-NEVPT2, F12-NEVPT2, CIM, IAO-localization        
  Andreas Hansen         : Spin unrestricted coupled pair/coupled cluster methods 
  Ingolf Harden          : AUTO-CI MPn and infrastructure                
  Benjamin Helmich-Paris : MC-RPA, TRAH-(SCF,CASSCF), AVAS, COSX integrals, SCF dyn. polar., MC-PDFT, srDFT 
  Lee Huntington         : MR-EOM, pCC                                   
  Robert Izsak           : Overlap fitted RIJCOSX, COSX-SCS-MP3, EOM     
  Riya Kayal             : Wick's Theorem for AUTO-CI, AUTO-CI UHF-CCSDT 
  Emily Kempfer          : AUTO-CI RHF CISDT and CCSDT, approximate NEVPT4
  Christian Kollmar      : KDIIS, OOCD, Brueckner-CCSD(T), CCSD density, CASPT2, CASPT2-K, improved NEVPT2 
  Axel Koslowski         : Symmetry handling                             
  Simone Kossmann        : meta-GGA functionals, TD-DFT gradient, OOMP2, (MP2 Hessian; deprecated post 5.0) 
  Lucas Lang             : DCDCAS, Hyperfine gauge corrections, ICE-SOC+SSC
  Marvin Lechner         : AUTO-CI (C++ implementation), FIC-MRCC        
  Spencer Leger          : CASSCF response                               
  Dagmar Lenk            : GEPOL surface, SMD, ORCA-2-JSON               
  Dimitrios Liakos       : Extrapolation schemes; Compound Job, Property file
  Dimitrios Manganas     : Further ROCIS development; embedding schemes. LFT, Crystal Embedding 
  Dimitrios Pantazis     : SARC Basis sets                               
  Anastasios Papadopoulos: AUTO-CI, single reference methods and gradients 
  Taras Petrenko         : pre 6.0 DFT Hessian and TD-DFT gradient,  ECA, NRVS 
  Petra Pikulova         : Analytic Raman intensities                    
  Peter Pinski           : DLPNO-MP2, DLPNO-MP2 Gradient                 
  Shashank Vittal Rao    : ES-AILFT, MagRelax                            
  Christoph Reimann      : Effective Core Potentials                     
  Marius Retegan         : Local ZFS, SOC                                
  Christoph Riplinger    : Optimizer, TS searches, QM/MM, DLPNO-CCSD(T), (RO)-DLPNO pert. Triples 
  Michael Roemelt        : Original ROCIS implementation, recursive CI coupling coefficients
  Masaaki Saitow         : Open-shell DLPNO-CCSD energy and density      
  Barbara Sandhoefer     : DKH picture change effects                    
  Yorick L. A. Schmerwitz: GMF and freeze-and-release deltaSCF, NEB S-IDPP initial path                    
  Kantharuban Sivalingam : CASSCF convergence/infrastructure, NEVPT2, NEVPT3, NEVPT4(SD), FIC-MRCI and CEPA variants
  Bernardo de Souza      : ESD, SOC TD-DFT                               
  Georgi L. Stoychev     : AutoAux, RI-MP2 NMR, DLPNO-MP2 response, X2C  
  Van Anh Tran           : RI-MP2 g-tensors                              
  Willem Van den Heuvel  : Paramagnetic NMR                              
  Zikuan Wang            : NOTCH, Electric field optimization            
  Frank Wennmohs         : Technical directorship and infrastructure     
  Hang Xu                : AUTO-CI-Response properties                   
                                                                         
[FACCTs GmbH]                                                            
  Markus Bursch, Nicolas Foglia, Miquel Garcia-Rates, Ingolf Harden, Hagen Neugebauer, Anastasios Papadopoulos, 
  Christoph Riplinger, Bernardo de Souza, Georgi L. Stoychev                                                    
                                                                 
  APM, various basis sets, CI-OPT, improved COSX, DLPNO-Multilevel,           
  DOCKER, DRACO, updates on ESD, Fragmentator, GOAT, IRC, LR-CPCM, L-BFGS, MBIS, meta-GGA TD-DFT gradient, ML-optimized integration grids, 
  MM, NACMEs, nearIR, NEB, NEB-TS, NL-DFT gradient (VV10), 2- and 3-layer-ONIOM, interface openCOSMO-RS, QMMM,   
  Crystal-QMMM, RESP, rigid body optimization, SF, symmetry and pop. for TD-DFT, various functionals, SOLVATOR                                   
                                                                         
[Other institutions]                                                     
  V. Asgeirsson          : NEB                                           
  Christoph Bannwarth    : sTDA-DFT, sTD-DFT, PBEh-3c, B97-3c, D3        
  Giovanni Bistoni       : ETS/NOCV, ADLD/ADEX, COVALED                  
  Martin Brehm           : Molecular dynamics                            
  Ronald Cardenas        : ETS/NOCV                                      
  Martina Colucci        : COVALED                                       
  Sebastian Ehlert       : rSCAN, r2SCAN, r2SCAN-3c, D4, dhf basis sets  
  Marvin Friede          : D4 for Fr, Ra, Ac-Lr                          
  Lars Goerigk           : TD-DFT with DH, B97 family of functionals     
  Stefan Grimme          : VdW corrections, initial TS optimization, DFT functionals, gCP, sTDA/sTD-DF 
  Waldemar Hujo          : DFT-NL                                        
  H. Jonsson             : NEB                                           
  Holger Kruse           : gCP                                           
  Marcel Mueller         : wB97X-3c, vDZP basis set                      
  Hagen Neugebauer       : wr2SCAN, Native XTB                           
  Gianluca Regni         : ADLD/ADEX                                     
  Tobias Risthaus        : pre 6.0 range-separated hybrid DFT and stability analysis
  Lukas Wittmann         : regularized MP2, r2SCAN double-hybrids, wr2SCAN        
                                                                         
We gratefully acknowledge several colleagues who have allowed us to      
interface, adapt or use parts of their codes:                            
  Ed Valeev, F. Pavosevic, A. Kumar             : LibInt (2-el integral package), F12 methods 
  Garnet Chan, S. Sharma, J. Yang, R. Olivares  : DMRG                   
  Ulf Ekstrom                                   : XCFun DFT Library      
  Mihaly Kallay                                 : mrcc  (arbitrary order and MRCC methods)
  Frank Weinhold                                : gennbo (NPA and NBO analysis)           
  Simon Mueller                                 : openCOSMO-RS                            
  Christopher J. Cramer and Donald G. Truhlar   : smd solvation model                     
  S Lehtola, MJT Oliveira, MAL Marques          : LibXC Library                           
  Liviu Ungur et al                             : ANISO software                          


 Your calculation uses the libint2 library for the computation of 2-el integrals
 For citations please refer to: http://libint.valeyev.net

 Your ORCA version has been built with support for libXC version: 7.0.0
 For citations please refer to: https://libxc.gitlab.io

 This ORCA versions uses:
   CBLAS   interface :  Fast vector & matrix operations
   LAPACKE interface :  Fast linear algebra routines
   SCALAPACK package :  Parallel linear algebra routines
   Shared memory     :  Shared parallel matrices
   BLAS/LAPACK       :  OpenBLAS 0.3.29  USE64BITINT DYNAMIC_ARCH NO_AFFINITY Bulldozer SINGLE_THREADED
        Core in use  :  Bulldozer
   Copyright (c) 2011-2014, The OpenBLAS Project


  ***********************************
  * Starting time: Thu Aug 14 15:36:22 2025
  * Host name:     chromium05
  * Process ID:    299968
  * Working dir.:  /local/scratch/mehlhorn/61910
  ***********************************



***************************************
The coordinates will be read from file: start.xyz
***************************************


Your calculation utilizes the atom-pairwise dispersion correction
with the Becke-Johnson damping scheme (D3BJ)


Warning: RI is on but no J-basis has been assigned. Assigning Def2/J (nothing to worry about!)
================================================================================

----- Orbital basis set information -----
Your calculation utilizes the basis: def2-TZVP
   F. Weigend and R. Ahlrichs, Phys. Chem. Chem. Phys. 7, 3297 (2005).

----- AuxJ basis set information -----
Your calculation utilizes the auxiliary basis: def2/J
   H-Rn: F. Weigend, Phys. Chem. Chem. Phys. 8, 1057 (2006).
   Fr-Lr: K. Eichkorn, F. Weigend, O. Treutler, R. Ahlrichs; Theor. Chem. Acc. 97, 119 (1997).

================================================================================
                                        WARNINGS
                       Please study these warnings very carefully!
================================================================================


WARNING: Geometry Optimization
  ===> : Switching off AutoStart
         For restart on a previous wavefunction, please use MOREAD

================================================================================
                                       INPUT FILE
================================================================================
NAME = run.inp
|  1> # Geometry optimization for (AlH3)n cluster
|  2> 
|  3> %pal nprocs 24  end
|  4> 
|  5> %geom MaxIter 500 end
|  6> 
|  7> 
|  8> ! PBE def2-TZVP
|  9> ! RKS	# closed shell for AlH3
| 10> ! D3    #  dispersion correction
| 11> ! Freq 	# Frequency analysis to check the stabiltity of the structures
| 12> 
| 13> ! NoPop # population analysis not necessary	
| 14> 
| 15> ! DEFGRID3
| 16> ! TightSCF
| 17> ! TightOpt
| 18> 
| 19> ! SmallPrint
| 20> 
| 21> 
| 22> * xyzFile 0 1 start.xyz # only maingroup elements H and Al so there should be no net spin
| 23> 
| 24>                          ****END OF INPUT****
================================================================================

                       *****************************
                       * Geometry Optimization Run *
                       *****************************

Geometry optimization settings:
Update method            Update   .... BFGS
Choice of coordinates    CoordSys .... (2022) Redundant Internals
Initial Hessian          InHess   .... Almloef's Model
Max. no of cycles        MaxIter  .... 500

Convergence Tolerances:
Energy Change            TolE     ....  1.0000e-06 Eh
Max. Gradient            TolMAXG  ....  1.0000e-04 Eh/bohr
RMS Gradient             TolRMSG  ....  3.0000e-05 Eh/bohr
Max. Displacement        TolMAXD  ....  1.0000e-03 bohr
RMS Displacement         TolRMSD  ....  6.0000e-04 bohr
Strict Convergence                .... False

------------------------------------------------------------------------------
                        ORCA OPTIMIZATION COORDINATE SETUP
------------------------------------------------------------------------------

The optimization will be done in redundant internal coordinates (2022)
Making redundant internal coordinates   ...  (2022 redundants) done
Evaluating the initial hessian          ...  (Almloef) done
Evaluating the coordinates              ...  done
Calculating the B-matrix                .... done
Calculating the G-matrix                .... done
The number of degrees of freedom        ....  156

    -----------------------------------------------------------------
                    Redundant Internal Coordinates


    -----------------------------------------------------------------
         Definition                    Initial Value    Approx d2E/dq
    -----------------------------------------------------------------
      1. B(Al  1,Al  0)                  3.1374         0.050001   
      2. B(H   2,Al  1)                  1.7179         0.251330   
      3. B(H   3,Al  1)                  1.5921         0.398893   
      4. B(H   4,Al  1)                  1.7104         0.258378   
      5. B(H   4,Al  0)                  1.7176         0.251610   
      6. B(H   5,Al  0)                  1.5915         0.399893   
      7. B(H   6,Al  0)                  1.7063         0.262245   
      8. B(H   7,Al  1)                  1.5898         0.402396   
      9. B(Al  8,H   2)                  1.7166         0.252544   
     10. B(Al  8,Al  1)                  3.1671         0.044833   
     11. B(H   9,Al  8)                  1.7123         0.256511   
     12. B(H  10,Al  8)                  1.5896         0.402678   
     13. B(H  11,Al  0)                  1.5891         0.403354   
     14. B(Al 12,H   6)                  1.7051         0.263447   
     15. B(Al 12,Al  0)                  3.3761         0.020806   
     16. B(Al 12,H   9)                  1.7185         0.250756   
     17. B(Al 12,Al  8)                  3.1200         0.053310   
     18. B(H  13,Al 12)                  1.5902         0.401780   
     19. B(H  14,Al 12)                  1.5905         0.401373   
     20. B(H  15,Al  8)                  1.5923         0.398745   
     21. A(H   5,Al  0,H  11)          128.6906         0.384810   
     22. A(Al  1,Al  0,Al 12)           80.4002         0.229545   
     23. A(Al  1,Al  0,H  11)          126.8879         0.314388   
     24. A(H   4,Al  0,Al 12)           92.9529         0.255094   
     25. A(H  11,Al  0,Al 12)          103.1240         0.273818   
     26. A(H   4,Al  0,H  11)          104.5325         0.355361   
     27. A(Al  1,Al  0,H   4)           23.7055         0.291554   
     28. A(Al  1,Al  0,H   5)           94.5398         0.313949   
     29. A(H   4,Al  0,H   5)          107.8668         0.354842   
     30. A(H   4,Al  0,H   6)           97.5583         0.330630   
     31. A(H   5,Al  0,H   6)          105.5781         0.357345   
     32. A(H   6,Al  0,H  11)          108.3411         0.357869   
     33. A(H   5,Al  0,Al 12)          113.6141         0.273457   
     34. A(H   6,Al  0,Al 12)            8.2443         0.256657   
     35. A(Al  1,Al  0,H   6)           82.4882         0.293461   
     36. A(Al  0,Al  1,H   7)          123.5187         0.314267   
     37. A(H   3,Al  1,H   4)          108.8477         0.356293   
     38. A(H   2,Al  1,H   3)          107.2490         0.354624   
     39. A(H   2,Al  1,H   7)          105.7046         0.355151   
     40. A(H   3,Al  1,Al  8)           98.7559         0.308338   
     41. A(Al  0,Al  1,H   2)          103.3259         0.291503   
     42. A(H   7,Al  1,Al  8)          124.6704         0.308773   
     43. A(H   2,Al  1,H   4)           95.3610         0.329758   
     44. A(Al  0,Al  1,H   4)           23.8118         0.292775   
     45. A(Al  0,Al  1,H   3)           85.0383         0.313822   
     46. A(H   4,Al  1,Al  8)           78.1590         0.287805   
     47. A(H   2,Al  1,Al  8)           22.7468         0.286564   
     48. A(Al  0,Al  1,Al  8)           81.6526         0.256216   
     49. A(H   4,Al  1,H   7)          105.9416         0.356822   
     50. A(H   3,Al  1,H   7)          128.6978         0.384484   
     51. A(Al  1,H   2,Al  8)          134.4879         0.328517   
     52. A(Al  0,H   4,Al  1)          132.4828         0.329819   
     53. A(Al  0,H   6,Al 12)          163.5054         0.333157   
     54. A(H   9,Al  8,H  15)          108.6857         0.355832   
     55. A(H   2,Al  8,H  15)          107.6597         0.354892   
     56. A(Al  1,Al  8,H  15)           95.4617         0.308320   
     57. A(H   2,Al  8,H  10)          105.8447         0.355483   
     58. A(Al  1,Al  8,H  10)          126.9013         0.308808   
     59. A(H   2,Al  8,H   9)           94.8305         0.329625   
     60. A(Al  1,Al  8,H   9)           80.6243         0.287479   
     61. A(Al  1,Al  8,H   2)           22.7652         0.286780   
     62. A(H   9,Al  8,H  10)          105.9506         0.356425   
     63. A(H  10,Al  8,Al 12)          123.1975         0.317594   
     64. A(H   9,Al  8,Al 12)           24.6256         0.295413   
     65. A(H   2,Al  8,Al 12)          104.2067         0.294686   
     66. A(Al  1,Al  8,Al 12)           84.0276         0.258659   
     67. A(H  10,Al  8,H  15)          128.6713         0.384506   
     68. A(Al 12,Al  8,H  15)           84.1028         0.317087   
     69. A(Al  8,H   9,Al 12)          130.8431         0.329239   
     70. A(H   9,Al 12,H  14)          108.5550         0.354860   
     71. A(Al  8,Al 12,H  14)           91.8347         0.317427   
     72. A(H   6,Al 12,H  14)          108.1909         0.357847   
     73. A(Al  0,Al 12,H  14)          103.6736         0.273612   
     74. A(H   9,Al 12,H  13)          104.1096         0.354921   
     75. A(Al  8,Al 12,H  13)          128.3039         0.317479   
     76. A(H   6,Al 12,H  13)          106.0460         0.357909   
     77. A(Al  0,Al 12,H  13)          113.8395         0.273654   
     78. A(H  13,Al 12,H  14)          128.4506         0.384796   
     79. A(Al  8,Al 12,H   9)           24.5312         0.294356   
     80. A(H   6,Al 12,H   9)           97.0421         0.330694   
     81. A(Al  0,Al 12,H   9)           92.1993         0.254966   
     82. A(H   6,Al 12,Al  8)           85.5840         0.296663   
     83. A(Al  0,Al 12,Al  8)           78.6573         0.231598   
     84. A(Al  0,Al 12,H   6)            8.2503         0.256831   
     85. D(H   2,Al  1,Al  0,Al 12)    -48.4010         0.010000   
     86. D(H   2,Al  1,Al  0,H   6)    -56.4669         0.010000   
     87. D(H   3,Al  1,Al  0,Al 12)     58.1766         0.010000   
     88. D(H   3,Al  1,Al  0,H   5)    -55.0340         0.010000   
     89. D(H   2,Al  1,Al  0,H   4)     72.6067         0.010000   
     90. D(H   3,Al  1,Al  0,H   4)    179.1842         0.010000   
     91. D(H   3,Al  1,Al  0,H   6)     50.1107         0.010000   
     92. D(H   2,Al  1,Al  0,H   5)   -161.6116         0.010000   
     93. D(H   2,Al  1,Al  0,H  11)     50.8634         0.010000   
     94. D(H   3,Al  1,Al  0,H  11)    157.4409         0.010000   
     95. D(Al  8,H   2,Al  1,H   7)    149.0506         0.010000   
     96. D(Al  8,H   2,Al  1,H   3)    -70.8336         0.010000   
     97. D(Al  8,H   2,Al  1,Al  0)     18.0478         0.010000   
     98. D(Al  8,H   2,Al  1,H   4)     40.8136         0.010000   
     99. D(Al  0,H   4,Al  1,Al  8)    -96.1823         0.010000   
    100. D(Al  1,H   4,Al  0,H   5)    -58.1773         0.010000   
    101. D(Al  0,H   4,Al  1,H   3)     -0.8587         0.010000   
    102. D(Al  0,H   4,Al  1,H   2)   -111.1465         0.010000   
    103. D(Al  1,H   4,Al  0,Al 12)     57.8028         0.010000   
    104. D(Al  1,H   4,Al  0,H  11)    162.1767         0.010000   
    105. D(Al  1,H   4,Al  0,H   6)     50.9340         0.010000   
    106. D(Al  0,H   4,Al  1,H   7)    140.8216         0.010000   
    107. D(Al 12,H   6,Al  0,H  11)    -51.6979         0.010000   
    108. D(Al 12,H   6,Al  0,H   5)    167.3965         0.010000   
    109. D(Al 12,H   6,Al  0,H   4)     56.4014         0.010000   
    110. D(Al 12,H   6,Al  0,Al  1)     74.7532         0.010000   
    111. D(H   2,Al  8,Al  1,H   3)    114.1155         0.010000   
    112. D(H   2,Al  8,Al  1,Al  0)   -162.2601         0.010000   
    113. D(H   2,Al  8,Al  1,H   7)    -37.0111         0.010000   
    114. D(H   2,Al  8,Al  1,H   4)   -138.3262         0.010000   
    115. D(H   9,Al  8,Al  1,Al  0)     69.8590         0.010000   
    116. D(H  15,Al  8,H   2,Al  1)    -59.9659         0.010000   
    117. D(H  10,Al  8,H   2,Al  1)    159.4994         0.010000   
    118. D(H   9,Al  8,H   2,Al  1)     51.4001         0.010000   
    119. D(H  10,Al  8,Al  1,Al  0)    172.8224         0.010000   
    120. D(H   9,Al  8,Al  1,H   7)   -164.8920         0.010000   
    121. D(H   9,Al  8,Al  1,H   4)     93.7930         0.010000   
    122. D(Al 12,Al  8,H   2,Al  1)     28.2790         0.010000   
    123. D(H   9,Al  8,Al  1,H   3)    -13.7654         0.010000   
    124. D(H   9,Al  8,Al  1,H   2)   -127.8808         0.010000   
    125. D(Al 12,H   9,Al  8,H  15)     -3.5135         0.010000   
    126. D(Al 12,H   9,Al  8,H  10)    137.9946         0.010000   
    127. D(Al 12,H   9,Al  8,H   2)   -113.9987         0.010000   
    128. D(Al 12,H   9,Al  8,Al  1)    -96.1497         0.010000   
    129. D(Al  0,Al 12,Al  8,H  10)   -172.5209         0.010000   
    130. D(Al  0,Al 12,Al  8,H   9)   -122.2625         0.010000   
    131. D(Al  0,Al 12,Al  8,H   2)    -52.3735         0.010000   
    132. D(H  14,Al 12,H   6,Al  0)     57.8411         0.010000   
    133. D(H  13,Al 12,H   6,Al  0)   -161.2994         0.010000   
    134. D(H   9,Al 12,H   6,Al  0)    -54.3745         0.010000   
    135. D(Al  8,Al 12,H   6,Al  0)    -32.6415         0.010000   
    136. D(H   9,Al 12,Al  0,Al  1)     22.1219         0.010000   
    137. D(Al  8,Al 12,Al  0,H  11)    -83.1587         0.010000   
    138. D(Al  8,Al 12,Al  0,H   6)    146.7363         0.010000   
    139. D(Al  8,Al 12,Al  0,H   5)    133.4749         0.010000   
    140. D(Al  8,Al 12,Al  0,H   4)     22.5073         0.010000   
    141. D(Al  8,Al 12,Al  0,Al  1)     42.6916         0.010000   
    142. D(Al  0,Al 12,Al  8,Al  1)    -41.7516         0.010000   
    143. D(H   6,Al 12,Al  0,H  11)    130.1050         0.010000   
    144. D(H   6,Al 12,Al  0,H   5)    -13.2615         0.010000   
    145. D(H   6,Al 12,Al  0,H   4)   -124.2290         0.010000   
    146. D(Al  0,Al 12,Al  8,H  15)     54.3917         0.010000   
    147. D(H   6,Al 12,Al  0,Al  1)   -104.0447         0.010000   
    148. D(H  14,Al 12,H   9,Al  8)    -49.1455         0.010000   
    149. D(H   6,Al 12,H   9,Al  8)     62.7718         0.010000   
    150. D(Al  0,Al 12,H   9,Al  8)     56.0686         0.010000   
    151. D(H   6,Al 12,Al  8,H  15)     58.9195         0.010000   
    152. D(H   6,Al 12,Al  8,H  10)   -167.9931         0.010000   
    153. D(H   6,Al 12,Al  8,H   9)   -117.7348         0.010000   
    154. D(H  13,Al 12,H   9,Al  8)    171.3275         0.010000   
    155. D(H   6,Al 12,Al  8,H   2)    -47.8457         0.010000   
    156. D(H   6,Al 12,Al  8,Al  1)    -37.2238         0.010000   
    -----------------------------------------------------------------

Number of atoms                         .... 16
Number of degrees of freedom            .... 156


         *************************************************************
         *                GEOMETRY OPTIMIZATION CYCLE   1            *
         *************************************************************
---------------------------------
CARTESIAN COORDINATES (ANGSTROEM)
---------------------------------
  Al     0.651919    1.200228    2.560985
  Al    -0.239455   -0.462952    0.054437
  H      0.486211   -1.997423    0.318935
  H     -1.669655   -0.490259    0.753525
  H      0.847134    0.401895    1.052787
  H     -0.476135    2.308838    2.384214
  H     -0.095298   -0.084171    3.399738
  H      0.129028   -0.064508   -1.439829
  Al     1.140741   -2.798458    1.688817
  H     -0.233990   -2.541227    2.676765
  H      1.136688   -4.346817    1.329197
  H      2.130824    1.367808    3.117823
  Al    -0.434295   -1.600869    4.101157
  H     -2.002592   -1.623318    4.363135
  H      0.742284   -1.955004    5.111020
  H      2.339850   -1.908563    2.241525

----------------------------
CARTESIAN COORDINATES (A.U.)
----------------------------
  NO LB      ZA    FRAG     MASS         X           Y           Z
   0 Al   13.0000    0    26.982    1.231949    2.268103    4.839560
   1 Al   13.0000    0    26.982   -0.452505   -0.874853    0.102871
   2 H     1.0000    0     1.008    0.918805   -3.774582    0.602700
   3 H     1.0000    0     1.008   -3.155191   -0.926455    1.423955
   4 H     1.0000    0     1.008    1.600851    0.759472    1.989478
   5 H     1.0000    0     1.008   -0.899765    4.363072    4.505511
   6 H     1.0000    0     1.008   -0.180086   -0.159061    6.424575
   7 H     1.0000    0     1.008    0.243827   -0.121903   -2.720883
   8 Al   13.0000    0    26.982    2.155689   -5.288319    3.191401
   9 H     1.0000    0     1.008   -0.442177   -4.802223    5.058352
  10 H     1.0000    0     1.008    2.148029   -8.214295    2.511818
  11 H     1.0000    0     1.008    4.026674    2.584782    5.891831
  12 Al   13.0000    0    26.982   -0.820698   -3.025203    7.750064
  13 H     1.0000    0     1.008   -3.784351   -3.067627    8.245130
  14 H     1.0000    0     1.008    1.402713   -3.694423    9.658429
  15 H     1.0000    0     1.008    4.421676   -3.606661    4.235868

--------------------------------
INTERNAL COORDINATES (ANGSTROEM)
--------------------------------
 Al     0   0   0     0.000000000000     0.00000000     0.00000000
 Al     1   0   0     3.137435132769     0.00000000     0.00000000
 H      2   1   0     1.717891306900   103.32588230     0.00000000
 H      2   1   3     1.592149634167    85.03833760   106.57756111
 H      2   1   3     1.710362158341    23.81178386   287.39331479
 H      1   2   3     1.591468237963    94.53979725   198.38838972
 H      1   2   3     1.706318629993    82.48817455   303.53313012
 H      2   1   3     1.589770006528   123.51871123   240.62380132
 Al     3   2   1     1.716579257677   134.48794411    18.04777521
 H      9   3   2     1.712336242872    94.83047328    51.40007642
 H      9   3   2     1.589578691738   105.84465160   159.49938587
 H      1   2   3     1.589122493659   126.88788545    50.86335137
 Al     7   1   2     1.705074247082   163.50536984    74.75317256
 H     13   7   1     1.590186614693   106.04604263   198.70056572
 H     13   7   1     1.590462586134   108.19086641    57.84111212
 H      9   3   2     1.592250509182   107.65973910   300.03407543

---------------------------
INTERNAL COORDINATES (A.U.)
---------------------------
 Al     0   0   0     0.000000000000     0.00000000     0.00000000
 Al     1   0   0     5.928893163876     0.00000000     0.00000000
 H      2   1   0     3.246344097884   103.32588230     0.00000000
 H      2   1   3     3.008726772798    85.03833760   106.57756111
 H      2   1   3     3.232116069086    23.81178386   287.39331479
 H      1   2   3     3.007439120584    94.53979725   198.38838972
 H      1   2   3     3.224474907894    82.48817455   303.53313012
 H      2   1   3     3.004229928260   123.51871123   240.62380132
 Al     3   2   1     3.243864684179   134.48794411    18.04777521
 H      9   3   2     3.235846548215    94.83047328    51.40007642
 H      9   3   2     3.003868395702   105.84465160   159.49938587
 H      1   2   3     3.003006306270   126.88788545    50.86335137
 Al     7   1   2     3.222123364987   163.50536984    74.75317256
 H     13   7   1     3.005017203597   106.04604263   198.70056572
 H     13   7   1     3.005538714042   108.19086641    57.84111212
 H      9   3   2     3.008917398951   107.65973910   300.03407543

---------------------
BASIS SET INFORMATION
---------------------
There are 2 groups of distinct atoms

 Group   1 Type Al  : 14s9p3d1f contracted to 5s5p2d1f pattern {73211/51111/21/1}
 Group   2 Type H   : 5s1p contracted to 3s1p pattern {311/1}

Atom   0Al   basis set group =>   1
Atom   1Al   basis set group =>   1
Atom   2H    basis set group =>   2
Atom   3H    basis set group =>   2
Atom   4H    basis set group =>   2
Atom   5H    basis set group =>   2
Atom   6H    basis set group =>   2
Atom   7H    basis set group =>   2
Atom   8Al   basis set group =>   1
Atom   9H    basis set group =>   2
Atom  10H    basis set group =>   2
Atom  11H    basis set group =>   2
Atom  12Al   basis set group =>   1
Atom  13H    basis set group =>   2
Atom  14H    basis set group =>   2
Atom  15H    basis set group =>   2
---------------------------------
AUXILIARY/J BASIS SET INFORMATION
---------------------------------
There are 2 groups of distinct atoms

 Group   1 Type Al  : 14s5p5d2f1g contracted to 8s4p3d1f1g pattern {71111111/2111/311/2/1}
 Group   2 Type H   : 5s2p1d contracted to 3s1p1d pattern {311/2/1}

Atom   0Al   basis set group =>   1
Atom   1Al   basis set group =>   1
Atom   2H    basis set group =>   2
Atom   3H    basis set group =>   2
Atom   4H    basis set group =>   2
Atom   5H    basis set group =>   2
Atom   6H    basis set group =>   2
Atom   7H    basis set group =>   2
Atom   8Al   basis set group =>   1
Atom   9H    basis set group =>   2
Atom  10H    basis set group =>   2
Atom  11H    basis set group =>   2
Atom  12Al   basis set group =>   1
Atom  13H    basis set group =>   2
Atom  14H    basis set group =>   2
Atom  15H    basis set group =>   2


           ************************************************************
           *        Program running with 24 parallel MPI-processes    *
           *              working on a common directory               *
           ************************************************************
------------------------------------------------------------------------------
                             ORCA STARTUP CALCULATIONS
                           -- RI-GTO INTEGRALS CHOSEN --
------------------------------------------------------------------------------
------------------------------------------------------------------------------
                   ___                                                        
                  /   \      - P O W E R E D   B Y -                         
                 /     \                                                     
                 |  |  |   _    _      __       _____    __    __             
                 |  |  |  | |  | |    /  \     |  _  \  |  |  /  |          
                  \  \/   | |  | |   /    \    | | | |  |  | /  /          
                 / \  \   | |__| |  /  /\  \   | |_| |  |  |/  /          
                |  |  |   |  __  | /  /__\  \  |    /   |      \           
                |  |  |   | |  | | |   __   |  |    \   |  |\   \          
                \     /   | |  | | |  |  |  |  | |\  \  |  | \   \       
                 \___/    |_|  |_| |__|  |__|  |_| \__\ |__|  \__/        
                                                                              
                      - O R C A' S   B I G   F R I E N D -                    
                                      &                                       
                       - I N T E G R A L  F E E D E R -                       
                                                                              
 v1 FN, 2020, v2 2021, v3 2022-2024                                           
------------------------------------------------------------------------------


----------------------
SHARK INTEGRAL PACKAGE
----------------------

Number of atoms                             ...     16
Number of basis functions                   ...    220
Number of shells                            ...    100
Maximum angular momentum                    ...      3
Integral batch strategy                     ... SHARK/LIBINT Hybrid
RI-J (if used) integral strategy            ... SPLIT-RIJ (Revised 2003 algorithm where possible)
Printlevel                                  ...      1
Contraction scheme used                     ... SEGMENTED contraction
Prescreening option                         ... SCHWARTZ
   Thresh                                   ... 2.500e-11
   Tcut                                     ... 2.500e-12
   Tpresel                                  ... 2.500e-12 
Coulomb Range Separation                    ... NOT USED
Exchange Range Separation                   ... NOT USED
Multipole approximations                    ... NOT USED
Finite Nucleus Model                        ... NOT USED
CABS basis                                  ... NOT available
Auxiliary Coulomb fitting basis             ... AVAILABLE
   # of basis functions in Aux-J            ...    336
   # of shells in Aux-J                     ...    128
   Maximum angular momentum in Aux-J        ...      4
Auxiliary J/K fitting basis                 ... NOT available
Auxiliary Correlation fitting basis         ... NOT available
Auxiliary 'external' fitting basis          ... NOT available

Checking pre-screening integrals            ... done (  0.0 sec) Dimension = 100
   => SHARK Basis and OBASIS are compatible. Storing Pre-screening
Shell pair information
Shell pair cut-off parameter TPreSel        ...   2.5e-12
Total number of shell pairs                 ...      5050
Shell pairs after pre-screening             ...      4473
Total number of primitive shell pairs       ...     16470
Primitive shell pairs kept                  ...     10537
          la=0 lb=0:   1419 shell pairs
          la=1 lb=0:   1503 shell pairs
          la=1 lb=1:    419 shell pairs
          la=2 lb=0:    446 shell pairs
          la=2 lb=1:    256 shell pairs
          la=2 lb=2:     36 shell pairs
          la=3 lb=0:    224 shell pairs
          la=3 lb=1:    128 shell pairs
          la=3 lb=2:     32 shell pairs
          la=3 lb=3:     10 shell pairs

Checking whether 4 symmetric matrices of dimension 220 fit in memory
:Max Core in MB      =   4096.00
 MB in use           =      8.92
 MB left             =   4087.08
 MB needed           =      0.74
 Data fit in memory  = YES
Calculating RI/J V-Matrix + Cholesky decomp.... done (  0.1 sec)
Calculating Nuclear repulsion               ... done (  0.0 sec) ENN=    286.193025146269 Eh

Diagonalization of the overlap matrix:
Smallest eigenvalue                        ... 1.630e-03
Time for diagonalization                   ...    0.054 sec
Threshold for overlap eigenvalues          ... 1.000e-07
Number of eigenvalues below threshold      ... 0
Time for construction of square roots      ...    0.007 sec
Total time needed                          ...    0.087 sec

-------------------
DFT GRID GENERATION
-------------------

General Integration Accuracy     IntAcc      ... 4.959
Radial Grid Type                 RadialGrid  ... OptM3 with GC (2021)
Angular Grid (max. ang.)         AngularGrid ... 6 (Lebedev-590)
Angular grid pruning method      GridPruning ... 4 (adaptive)
Weight generation scheme         WeightScheme... mBecke (2022)
Basis function cutoff            BFCut       ... 1.0000e-11
Integration weight cutoff        WCut        ... 1.0000e-14
Partially contracted basis set               ... off
Rotationally invariant grid construction     ... off
Angular grids for H and He will be reduced by one unit

Total number of grid points                  ...   169670
Total number of batches                      ...     2659
Average number of points per batch           ...       63
Average number of grid points per atom       ...    10604
Grids setup in   4.6 sec
Initializing property integral containers    ... done (  0.0 sec)

SHARK setup successfully completed in   5.4 seconds

Maximum memory used throughout the entire STARTUP-calculation: 36.7 MB


           ************************************************************
           *        Program running with 24 parallel MPI-processes    *
           *              working on a common directory               *
           ************************************************************
-------------------------------------------------------------------------------
                                 ORCA GUESS
                   Start orbitals & Density for SCF / CASSCF
-------------------------------------------------------------------------------

------------
SCF SETTINGS
------------
Hamiltonian:
 Density Functional     Method          .... DFT(GTOs)
 Exchange Functional    Exchange        .... PBE
   PBE kappa parameter   XKappa         ....  0.804000
   PBE mue parameter    XMuePBE         ....  0.219520
 Correlation Functional Correlation     .... PBE
   PBE beta parameter  CBetaPBE         ....  0.066725
 LDA part of GGA corr.  LDAOpt          .... PW91-LDA
 Gradients option       PostSCFGGA      .... off
   NL short-range parameter             ....  6.400000
 RI-approximation to the Coulomb term is turned on
   Number of AuxJ basis functions       .... 336


General Settings:
 Integral files         IntName         .... run
 Hartree-Fock type      HFTyp           .... RHF
 Total Charge           Charge          ....    0
 Multiplicity           Mult            ....    1
 Number of Electrons    NEL             ....   64
 Basis Dimension        Dim             ....  220
 Nuclear Repulsion      ENuc            ....    286.1930251463 Eh

Convergence Acceleration:
 AO-DIIS                CNVDIIS         .... on
   Start iteration      DIISMaxIt       ....    12
   Startup error        DIISStart       ....  0.200000
   # of expansion vecs  DIISMaxEq       ....     5
   Bias factor          DIISBfac        ....   1.050
   Max. coefficient     DIISMaxC        ....  10.000
 MO-DIIS                CNVKDIIS        .... off
 Trust-Rad. Augm. Hess. CNVTRAH         .... auto
   Auto Start mean grad. ratio tolernc. ....  1.125000
   Auto Start start iteration           ....    50
   Auto Start num. interpolation iter.  ....    10
   Max. Number of Micro iterations      ....    24
   Max. Number of Macro iterations      .... Maxiter - #DIIS iter
   Number of Davidson start vectors     ....     2
   Converg. threshold    (grad. norm)   ....   1.000e-05
   Grad. Scal. Fac. for Micro threshold ....   0.100
   Minimum threshold for Micro iter.    ....   1.000e-02
   NR start threshold (gradient norm)   ....   1.000e-04
   Initial trust radius                 ....   0.400
   Minimum AH scaling param. (alpha)    ....   1.000
   Maximum AH scaling param. (alpha)    .... 1000.000
   Quad. conv. algorithm                .... NR
   White noise on init. David. guess    .... on
   Maximum white noise                  ....   0.010
   Pseudo random numbers                .... off
   Inactive MOs                         .... canonical
   Orbital update algorithm             .... Taylor
   Preconditioner                       .... Diag
   Full preconditioner red. dimension   ....   250
 SOSCF                 CNVSOSCF           .... on
   Start iteration     SOSCFMaxIt         ....   150
   Startup grad/error  SOSCFStart         ....  0.003300
   Hessian update      SOSCFHessUp        .... L-BFGS
   Autom. constraints  SOSCFAutoConstrain .... off
 Level Shifting         CNVShift        .... on
   Level shift para.    LevelShift      ....    0.2500
   Turn off err/grad.   ShiftErr        ....    0.0010
 Zerner damping         CNVZerner       .... off
 Static damping         CNVDamp         .... on
   Fraction old density DampFac         ....    0.7000
   Max. Damping (<1)    DampMax         ....    0.9800
   Min. Damping (>=0)   DampMin         ....    0.0000
   Turn off err/grad.   DampErr         ....    0.1000

SCF Procedure:
 Maximum # iterations   MaxIter         ....   125
 SCF integral mode      SCFMode         .... Direct
   Integral package                     .... SHARK and LIBINT hybrid scheme
 Reset frequency        DirectResetFreq ....    20
 Integral Threshold     Thresh          ....  2.500e-11 Eh
 Primitive CutOff       TCut            ....  2.500e-12 Eh

Convergence Tolerance:
 Convergence Check Mode ConvCheckMode   .... Total+1el-Energy
 Convergence forced     ConvForced      .... 0
 Energy Change          TolE            ....  1.000e-08 Eh
 1-El. energy change                    ....  1.000e-05 Eh
 Orbital Gradient       TolG            ....  1.000e-05
 Orbital Rotation angle TolX            ....  1.000e-05
 DIIS Error             TolErr          ....  5.000e-07

------------------------------
INITIAL GUESS: MODEL POTENTIAL
------------------------------
Loading Hartree-Fock densities                     ... done
Calculating cut-offs                               ... done
Initializing the effective Hamiltonian             ... done
Setting up the integral package (SHARK)            ... done
Starting the Coulomb interaction                   ... done (   0.1 sec)
Making the grid                                    ... done (   0.2 sec)
Mapping shells                                     ... done
Starting the XC term evaluation                    ... done (   0.0 sec)
  promolecular density results
     # of electrons  =     63.996184202
     EX              =    -75.582709719
     EC              =     -2.203877482
     EX+EC           =    -77.786587201
Transforming the Hamiltonian                       ... done (   0.0 sec)
Diagonalizing the Hamiltonian                      ... done (   0.0 sec)
Back transforming the eigenvectors                 ... done (   0.0 sec)
Now organizing SCF variables                       ... done
                      ------------------
                      INITIAL GUESS DONE (   0.4 sec)
                      ------------------
             **** ENERGY FILE WAS UPDATED (run.en.tmp) ****
Finished Guess after   1.0 sec
Maximum memory used throughout the entire GUESS-calculation: 13.2 MB


           ************************************************************
           *        Program running with 24 parallel MPI-processes    *
           *              working on a common directory               *
           ************************************************************

-------------------------------------------------------------------------------------------
                                      ORCA LEAN-SCF
                              memory conserving SCF solver
-------------------------------------------------------------------------------------------

----------------------------------------D-I-I-S--------------------------------------------
Iteration    Energy (Eh)           Delta-E    RMSDP     MaxDP     DIISErr   Damp  Time(sec)
-------------------------------------------------------------------------------------------
               ***  Starting incremental Fock matrix formation  ***
    1    -976.2849064751674177     0.00e+00  3.05e-03  1.87e-02  8.52e-02  0.700   0.6
    2    -976.3025542836287514    -1.76e-02  2.75e-03  1.71e-02  5.75e-02  0.700   0.5
                               ***Turning on AO-DIIS***
    3    -976.3137829563681862    -1.12e-02  1.56e-03  9.25e-03  3.41e-02  0.700   0.5
    4    -976.3204623020430972    -6.68e-03  3.24e-03  1.84e-02  2.22e-02  0.000   0.5
                              *** Initializing SOSCF ***
---------------------------------------S-O-S-C-F--------------------------------------
Iteration    Energy (Eh)           Delta-E    RMSDP     MaxDP     MaxGrad    Time(sec)
--------------------------------------------------------------------------------------
    5    -976.3338008736679967    -1.33e-02  3.53e-04  2.84e-03  1.89e-03     0.5
               *** Restarting incremental Fock matrix formation ***
    6    -976.3338427823202892    -4.19e-05  1.85e-04  9.32e-04  2.23e-04     0.5
    7    -976.3338460564682464    -3.27e-06  6.88e-05  7.38e-04  1.56e-04     0.4
    8    -976.3338476249575706    -1.57e-06  2.89e-05  2.17e-04  4.64e-05     0.4
    9    -976.3338477250604228    -1.00e-07  9.58e-06  5.02e-05  2.19e-05     0.4
   10    -976.3338477763486480    -5.13e-08  2.41e-06  2.48e-05  3.64e-06     0.4
   11    -976.3338477733009313     3.05e-09  1.05e-06  1.12e-05  1.56e-06     0.4
                 **** Energy Check signals convergence ****

               *****************************************************
               *                     SUCCESS                       *
               *           SCF CONVERGED AFTER  11 CYCLES          *
               *****************************************************

             **** ENERGY FILE WAS UPDATED (run.en.tmp) ****

----------------
TOTAL SCF ENERGY
----------------

Total Energy       :       -976.33384777815945 Eh          -26567.39466 eV

Components:
Nuclear Repulsion  :        286.19302514626878 Eh            7787.70813 eV
Electronic Energy  :      -1262.52687292442852 Eh          -34355.10279 eV
One Electron Energy:      -1925.60344425198741 Eh          -52398.33360 eV
Two Electron Energy:        663.07657132755901 Eh           18043.23081 eV

Virial components:
Potential Energy   :      -1950.41380616178776 Eh          -53073.45787 eV
Kinetic Energy     :        974.07995838362842 Eh           26506.06321 eV
Virial Ratio       :          2.00231386486821

DFT components:
N(Alpha)           :       31.999998880717 electrons
N(Beta)            :       31.999998880717 electrons
N(Total)           :       63.999997761433 electrons
E(X)               :      -76.204506587195 Eh       
E(C)               :       -2.175458002528 Eh       
E(XC)              :      -78.379964589723 Eh       

---------------
SCF CONVERGENCE
---------------

  Last Energy change         ...   -3.0477e-09  Tolerance :   1.0000e-08
  Last MAX-Density change    ...    1.1194e-05  Tolerance :   1.0000e-07
  Last RMS-Density change    ...    1.0457e-06  Tolerance :   5.0000e-09
  Last DIIS Error            ...    1.8948e-03  Tolerance :   5.0000e-07
  Last Orbital Gradient      ...    1.5642e-06  Tolerance :   1.0000e-05
  Last Orbital Rotation      ...    3.1353e-06  Tolerance :   1.0000e-05


----------------
ORBITAL ENERGIES
----------------

  NO   OCC          E(Eh)            E(eV) 
   0   2.0000     -55.385225     -1507.1086 
   1   2.0000     -55.385194     -1507.1077 
   2   2.0000     -55.383634     -1507.0653 
   3   2.0000     -55.383622     -1507.0650 
   4   2.0000      -3.945581      -107.3647 
   5   2.0000      -3.945565      -107.3643 
   6   2.0000      -3.943723      -107.3142 
   7   2.0000      -3.943682      -107.3130 
   8   2.0000      -2.550712       -69.4084 
   9   2.0000      -2.550687       -69.4077 
  10   2.0000      -2.548864       -69.3581 
  11   2.0000      -2.548819       -69.3569 
  12   2.0000      -2.548519       -69.3487 
  13   2.0000      -2.548476       -69.3476 
  14   2.0000      -2.546803       -69.3020 
  15   2.0000      -2.546784       -69.3015 
  16   2.0000      -2.542908       -69.1960 
  17   2.0000      -2.542858       -69.1947 
  18   2.0000      -2.540881       -69.1409 
  19   2.0000      -2.540809       -69.1389 
  20   2.0000      -0.480684       -13.0801 
  21   2.0000      -0.426536       -11.6066 
  22   2.0000      -0.422669       -11.5014 
  23   2.0000      -0.354882        -9.6568 
  24   2.0000      -0.336669        -9.1612 
  25   2.0000      -0.307230        -8.3602 
  26   2.0000      -0.300437        -8.1753 
  27   2.0000      -0.297024        -8.0824 
  28   2.0000      -0.287584        -7.8256 
  29   2.0000      -0.280018        -7.6197 
  30   2.0000      -0.273440        -7.4407 
  31   2.0000      -0.272175        -7.4063 
  32   0.0000      -0.066676        -1.8143 
  33   0.0000      -0.059956        -1.6315 
  34   0.0000      -0.058396        -1.5890 
  35   0.0000      -0.050633        -1.3778 
  36   0.0000      -0.045984        -1.2513 
  37   0.0000      -0.028762        -0.7826 
  38   0.0000      -0.010072        -0.2741 
  39   0.0000      -0.004157        -0.1131 
  40   0.0000       0.003392         0.0923 
  41   0.0000       0.007497         0.2040 
  42   0.0000       0.008980         0.2444 
*Only the first 10 virtual orbitals were printed.
-------
TIMINGS
-------

Total SCF time: 0 days 0 hours 0 min 6 sec 

Total time                  ....       6.449 sec
Sum of individual times     ....       5.990 sec  ( 92.9%)

SCF preparation             ....       0.676 sec  ( 10.5%)
Fock matrix formation       ....       4.527 sec  ( 70.2%)
  Startup                   ....       0.015 sec  (  0.3% of F)
  Split-RI-J                ....       0.934 sec  ( 20.6% of F)
  XC integration            ....       3.699 sec  ( 81.7% of F)
    XC Preparation          ....       0.000 sec  (  0.0% of XC)
    Basis function eval.    ....       1.001 sec  ( 27.1% of XC)
    Density eval.           ....       0.814 sec  ( 22.0% of XC)
    XC-Functional eval.     ....       0.106 sec  (  2.9% of XC)
    XC-Potential eval.      ....       0.886 sec  ( 24.0% of XC)
Diagonalization             ....       0.000 sec  (  0.0%)
Density matrix formation    ....       0.095 sec  (  1.5%)
Total Energy calculation    ....       0.045 sec  (  0.7%)
Population analysis         ....       0.000 sec  (  0.0%)
Orbital Transformation      ....       0.079 sec  (  1.2%)
Orbital Orthonormalization  ....       0.000 sec  (  0.0%)
DIIS solution               ....       0.322 sec  (  5.0%)
SOSCF solution              ....       0.246 sec  (  3.8%)
Finished LeanSCF after   6.5 sec

Maximum memory used throughout the entire LEANSCF-calculation: 12.7 MB


           ************************************************************
           *        Program running with 24 parallel MPI-processes    *
           *              working on a common directory               *
           ************************************************************

------------------------------------------------------------------------------
                         ORCA PROPERTY INTEGRAL CALCULATIONS
------------------------------------------------------------------------------

GBWName                                   ... run.gbw
Number of atoms                           ...     16
Number of basis functions                 ...    220
Max core memory                           ...   4096 MB

Dipole integrals                          ... YES
Quadrupole integrals                      ...  NO
Linear momentum integrals                 ...  NO
Angular momentum integrals                ...  NO
Higher moments length integrals           ...  NO
Higher moments velocity integrals         ...  NO
Kinetic energy integrals                  ...  NO
GIAO right hand sides                     ...  NO
GIAO dipole derivative integrals          ...  NO
SOC integrals                             ...  NO
EPR diamagnetic integrals (GIAO)          ...  NO
EPR gauge integrals                       ...  NO
Field gradient integrals                  ...  NO (   0 nuclei)
Spin-dipole/Fermi contact integrals       ...  NO (   0 nuclei)
Contact density integrals                 ...  NO (   0 nuclei)
Nucleus-orbit integrals                   ...  NO (   0 nuclei)
Geometric perturbations                   ...  NO (  16 nuclei)

Choice of electric origin   ... Center of mass
Position of electric origin ... (  0.5283, -1.7292,  3.9724) 
Choice of magnetic origin   ... GIAO
Position of magnetic origin ... (  0.0000,  0.0000,  0.0000) 

Calculating integrals                     ... Electric Dipole (Length)     done (  0.0 sec)

Property integrals calculated in   0.0 sec

Maximum memory used throughout the entire PROPINT-calculation: 13.6 MB


-------------------------------------------------------------------------------
                          DFT DISPERSION CORRECTION                            
                                                                               
                              DFTD3 V3.1  Rev 1                                
                          USING Becke-Johnson damping                          
-------------------------------------------------------------------------------
The PBE functional is recognized
Active option DFTDOPT                   ...         4   

molecular C6(AA) [au] = 4941.693106 


            DFT-D V3
 parameters
 s6 scaling factor         :     1.0000 
 a1 scaling factor         :     0.4289 
 s8 scaling factor         :     0.7875 
 a2 scaling factor         :     4.4407 
 ad hoc parameters k1-k3   :    16.0000     1.3333    -4.0000 

 Edisp/kcal,au: -8.810849111727  -0.014040980314 
 E6   /kcal   :  -5.506802835 
 E8   /kcal   :  -3.304046277 
 % E8         :  37.499748721 

-------------------------   ----------------
Dispersion correction           -0.014040980
-------------------------   ----------------


-------------------------   --------------------
FINAL SINGLE POINT ENERGY      -976.347888758473
-------------------------   --------------------



           ************************************************************
           *        Program running with 24 parallel MPI-processes    *
           *              working on a common directory               *
           ************************************************************
------------------------------------------------------------------------------
                         ORCA SCF GRADIENT CALCULATION
------------------------------------------------------------------------------

Nuc. rep. gradient        (SHARK) ... done (  0.0 sec)
HCore & Overlap gradient  (SHARK) ... done (  0.1 sec)
Split-RIJ-J gradient      (SHARK) ... done (  0.5 sec)
XC gradient                       ... done (  2.0 sec)
Dispersion correction             ... done (  0.1 sec)

-------------------
DISPERSION GRADIENT
-------------------

   1   Al  :    0.000092403    0.000564345    0.000115710
   2   Al  :   -0.000133595    0.000097067   -0.000519106
   3   H   :    0.000018534   -0.000098181   -0.000160507
   4   H   :   -0.000201691    0.000033699   -0.000170998
   5   H   :    0.000050574    0.000151678   -0.000107751
   6   H   :   -0.000031393    0.000178531    0.000039092
   7   H   :   -0.000044806    0.000103790    0.000165434
   8   H   :   -0.000014254    0.000032729   -0.000151211
   9   Al  :    0.000221690   -0.000477882   -0.000120448
  10   H   :   -0.000047487   -0.000174913    0.000074773
  11   H   :    0.000045748   -0.000143928   -0.000036015
  12   H   :    0.000121989    0.000146306    0.000054701
  13   Al  :   -0.000189228   -0.000185375    0.000524688
  14   H   :   -0.000128665   -0.000036133    0.000110718
  15   H   :    0.000010998   -0.000051111    0.000191336
  16   H   :    0.000229185   -0.000140621   -0.000010416

Difference to translation invariance:
           :   -0.0000000000    0.0000000000   -0.0000000000

Difference to rotation invariance:
           :   -0.0000000000   -0.0000000000   -0.0000000000

Norm of the Dispersion gradient    ...    0.0013270231
RMS gradient                       ...    0.0001915393
MAX gradient                       ...    0.0005643446

------------------
CARTESIAN GRADIENT
------------------

   1   Al  :    0.000152585    0.000928237    0.000096629
   2   Al  :    0.000433064   -0.000022518   -0.000909805
   3   H   :   -0.000032204    0.000154018    0.000235272
   4   H   :   -0.000650320   -0.000125964    0.000355632
   5   H   :   -0.000288019    0.000106077    0.000005271
   6   H   :   -0.000603932    0.000500032   -0.000116161
   7   H   :    0.000150557   -0.000080217   -0.000024440
   8   H   :    0.000177871    0.000261746   -0.000746197
   9   Al  :   -0.000193766   -0.000854925   -0.000722945
  10   H   :    0.000258083    0.000005930    0.000160964
  11   H   :   -0.000012209   -0.000801854   -0.000046578
  12   H   :    0.000768562   -0.000122191    0.000303625
  13   Al  :   -0.000634902   -0.000311979    0.000684907
  14   H   :   -0.000780951    0.000011666    0.000077765
  15   H   :    0.000684086   -0.000086217    0.000404252
  16   H   :    0.000571494    0.000438159    0.000241811

Difference to translation invariance:
           :   -0.0000000000    0.0000000000   -0.0000000000

Difference to rotation invariance:
           :    0.0000221231    0.0000468638    0.0000672531

Norm of the Cartesian gradient     ...    0.0030810359
RMS gradient                       ...    0.0004447092
MAX gradient                       ...    0.0009282366

-------
TIMINGS
-------

Total SCF gradient time     ....        2.714 sec

Densities                   ....       0.002 sec  (  0.1%)
One electron gradient       ....       0.109 sec  (  4.0%)
RI-J Coulomb gradient       ....       0.480 sec  ( 17.7%)
XC gradient                 ....       1.996 sec  ( 73.5%)

Maximum memory used throughout the entire SCFGRAD-calculation: 32.0 MB
------------------------------------------------------------------------------
                         ORCA GEOMETRY RELAXATION STEP
------------------------------------------------------------------------------

Reading the OPT-File                    .... done
Getting information on internals        .... done
Copying old internal coords+grads       .... done
Making the new internal coordinates     .... (2022 redundants) done
Validating the new internal coordinates .... (2022 redundants) done
Calculating the B-matrix                .... done
Calculating the G,G- and P matrices     .... done
Transforming gradient to internals      .... done
Projecting the internal gradient        .... done
Number of atoms                         ....  16
Number of internal coordinates          .... 156
Current Energy                          ....  -976.347888758 Eh
Current gradient norm                   ....     0.003081036 Eh/bohr
Maximum allowed component of the step   ....  0.300
Current trust radius                    ....  0.300
Evaluating the initial hessian          ....  (Almloef) done
Projecting the Hessian                  .... done
Forming the augmented Hessian           .... done
Diagonalizing the augmented Hessian     .... done
Last element of RFO vector              ....  0.999770684
Lowest eigenvalues of augmented Hessian:
 -0.000041586  0.011252059  0.015662906  0.017550081  0.026931496
Length of the computed step             ....  0.021419356
The final length of the internal step   ....  0.021419356
Converting the step to Cartesian space:
 Initial RMS(Int)=    0.0017149210
Transforming coordinates:
 Iter   0:  RMS(Cart)=    0.0045010977 RMS(Int)=    0.0017144238
done
Storing new coordinates                 .... done

                                .--------------------.
          ----------------------|Geometry convergence|-------------------------
          Item                value                   Tolerance       Converged
          ---------------------------------------------------------------------
          RMS gradient        0.0002223306            0.0000300000      NO
          MAX gradient        0.0008095858            0.0001000000      NO
          RMS step            0.0017149210            0.0006000000      NO
          MAX step            0.0063388842            0.0010000000      NO
          -------------------------------------------------------------------------
          ........................................................
          Max(Bonds)      0.0034      Max(Angles)    0.12
          Max(Dihed)        0.23      Max(Improp)    0.00
          ---------------------------------------------------------------------

The optimization has not yet converged - more geometry cycles are needed


    ---------------------------------------------------------------------------
                         Redundant Internal Coordinates
                            (Angstroem and degrees)

        Definition                    Value    dE/dq     Step     New-Value
    ----------------------------------------------------------------------------
     1. B(Al  1,Al  0)                3.1374  0.000597 -0.0031    3.1343   
     2. B(H   2,Al  1)                1.7179  0.000175 -0.0011    1.7168   
     3. B(H   3,Al  1)                1.5921  0.000742 -0.0010    1.5912   
     4. B(H   4,Al  1)                1.7104  0.000127 -0.0009    1.7094   
     5. B(H   4,Al  0)                1.7176  0.000224 -0.0011    1.7165   
     6. B(H   5,Al  0)                1.5915  0.000789 -0.0010    1.5904   
     7. B(H   6,Al  0)                1.7063  0.000311 -0.0015    1.7049   
     8. B(H   7,Al  1)                1.5898  0.000809 -0.0011    1.5887   
     9. B(Al  8,H   2)                1.7166  0.000172 -0.0010    1.7155   
    10. B(Al  8,Al  1)                3.1671  0.000563 -0.0034    3.1638   
    11. B(H   9,Al  8)                1.7123  0.000165 -0.0010    1.7113   
    12. B(H  10,Al  8)                1.5896  0.000792 -0.0010    1.5885   
    13. B(H  11,Al  0)                1.5891  0.000810 -0.0011    1.5881   
    14. B(Al 12,H   6)                1.7051  0.000319 -0.0015    1.7036   
    15. B(Al 12,Al  0)                3.3761  0.000671 -0.0031    3.3730   
    16. B(Al 12,H   9)                1.7185  0.000287 -0.0011    1.7174   
    17. B(Al 12,Al  8)                3.1200  0.000610 -0.0032    3.1168   
    18. B(H  13,Al 12)                1.5902  0.000784 -0.0010    1.5892   
    19. B(H  14,Al 12)                1.5905  0.000781 -0.0010    1.5894   
    20. B(H  15,Al  8)                1.5923  0.000758 -0.0010    1.5912   
    21. A(H   5,Al  0,H  11)          128.69  0.000113   -0.03    128.66   
    22. A(Al  1,Al  0,Al 12)           80.40  0.000031   -0.05     80.35   
    23. A(Al  1,Al  0,H  11)          126.89 -0.000115    0.04    126.93   
    24. A(H   4,Al  0,Al 12)           92.95 -0.000033    0.00     92.96   
    25. A(H  11,Al  0,Al 12)          103.12 -0.000104    0.03    103.15   
    26. A(H   4,Al  0,H  11)          104.53  0.000005   -0.00    104.53   
    27. A(Al  1,Al  0,H   4)           23.71 -0.000112    0.05     23.76   
    28. A(Al  1,Al  0,H   5)           94.54  0.000031   -0.00     94.54   
    29. A(H   4,Al  0,H   5)          107.87 -0.000029    0.00    107.87   
    30. A(H   4,Al  0,H   6)           97.56 -0.000064    0.02     97.58   
    31. A(H   5,Al  0,H   6)          105.58  0.000057   -0.02    105.56   
    32. A(H   6,Al  0,H  11)          108.34 -0.000130    0.05    108.39   
    33. A(H   5,Al  0,Al 12)          113.61  0.000006    0.01    113.62   
    34. A(H   6,Al  0,Al 12)            8.24 -0.000051    0.03      8.27   
    35. A(Al  1,Al  0,H   6)           82.49  0.000026   -0.04     82.44   
    36. A(Al  0,Al  1,H   7)          123.52 -0.000009    0.02    123.54   
    37. A(H   3,Al  1,H   4)          108.85 -0.000102    0.03    108.87   
    38. A(H   2,Al  1,H   3)          107.25 -0.000120    0.06    107.31   
    39. A(H   2,Al  1,H   7)          105.70  0.000109   -0.04    105.67   
    40. A(H   3,Al  1,Al  8)           98.76 -0.000078    0.01     98.77   
    41. A(Al  0,Al  1,H   2)          103.33 -0.000041   -0.01    103.32   
    42. A(H   7,Al  1,Al  8)          124.67  0.000029    0.02    124.69   
    43. A(H   2,Al  1,H   4)           95.36  0.000040   -0.05     95.31   
    44. A(Al  0,Al  1,H   4)           23.81 -0.000100    0.05     23.86   
    45. A(Al  0,Al  1,H   3)           85.04 -0.000003   -0.02     85.01   
    46. A(H   4,Al  1,Al  8)           78.16  0.000084   -0.08     78.08   
    47. A(H   2,Al  1,Al  8)           22.75 -0.000097    0.06     22.81   
    48. A(Al  0,Al  1,Al  8)           81.65  0.000049   -0.06     81.59   
    49. A(H   4,Al  1,H   7)          105.94  0.000068   -0.01    105.93   
    50. A(H   3,Al  1,H   7)          128.70  0.000017    0.00    128.70   
    51. A(Al  1,H   2,Al  8)          134.49  0.000194   -0.12    134.37   
    52. A(Al  0,H   4,Al  1)          132.48  0.000212   -0.11    132.38   
    53. A(Al  0,H   6,Al 12)          163.51  0.000103   -0.05    163.45   
    54. A(H   9,Al  8,H  15)          108.69 -0.000052    0.03    108.72   
    55. A(H   2,Al  8,H  15)          107.66 -0.000120    0.05    107.71   
    56. A(Al  1,Al  8,H  15)           95.46 -0.000046   -0.02     95.44   
    57. A(H   2,Al  8,H  10)          105.84  0.000165   -0.06    105.79   
    58. A(Al  1,Al  8,H  10)          126.90  0.000065    0.01    126.92   
    59. A(H   2,Al  8,H   9)           94.83  0.000056   -0.06     94.77   
    60. A(Al  1,Al  8,H   9)           80.62  0.000081   -0.06     80.56   
    61. A(Al  1,Al  8,H   2)           22.77 -0.000097    0.06     22.83   
    62. A(H   9,Al  8,H  10)          105.95 -0.000007    0.00    105.95   
    63. A(H  10,Al  8,Al 12)          123.20 -0.000059    0.03    123.23   
    64. A(H   9,Al  8,Al 12)           24.63 -0.000065    0.05     24.68   
    65. A(H   2,Al  8,Al 12)          104.21 -0.000034   -0.00    104.20   
    66. A(Al  1,Al  8,Al 12)           84.03  0.000041   -0.04     83.99   
    67. A(H  10,Al  8,H  15)          128.67 -0.000015    0.01    128.68   
    68. A(Al 12,Al  8,H  15)           84.10  0.000013   -0.02     84.09   
    69. A(Al  8,H   9,Al 12)          130.84  0.000148   -0.10    130.74   
    70. A(H   9,Al 12,H  14)          108.55 -0.000041    0.01    108.56   
    71. A(Al  8,Al 12,H  14)           91.83 -0.000019    0.01     91.84   
    72. A(H   6,Al 12,H  14)          108.19 -0.000132    0.03    108.22   
    73. A(Al  0,Al 12,H  14)          103.67 -0.000107    0.03    103.70   
    74. A(H   9,Al 12,H  13)          104.11  0.000041   -0.02    104.09   
    75. A(Al  8,Al 12,H  13)          128.30 -0.000042    0.03    128.33   
    76. A(H   6,Al 12,H  13)          106.05  0.000015   -0.01    106.04   
    77. A(Al  0,Al 12,H  13)          113.84 -0.000034    0.02    113.86   
    78. A(H  13,Al 12,H  14)          128.45  0.000118   -0.02    128.43   
    79. A(Al  8,Al 12,H   9)           24.53 -0.000082    0.05     24.58   
    80. A(H   6,Al 12,H   9)           97.04 -0.000035    0.02     97.06   
    81. A(Al  0,Al 12,H   9)           92.20 -0.000010   -0.00     92.19   
    82. A(H   6,Al 12,Al  8)           85.58 -0.000011   -0.03     85.55   
    83. A(Al  0,Al 12,Al  8)           78.66  0.000035   -0.06     78.60   
    84. A(Al  0,Al 12,H   6)            8.25 -0.000052    0.03      8.28   
    85. D(H   2,Al  1,Al  0,Al 12)    -48.40  0.000118   -0.14    -48.54   
    86. D(H   2,Al  1,Al  0,H   6)    -56.47  0.000171   -0.17    -56.64   
    87. D(H   3,Al  1,Al  0,Al 12)     58.18 -0.000005   -0.09     58.09   
    88. D(H   3,Al  1,Al  0,H   5)    -55.03 -0.000007   -0.10    -55.13   
    89. D(H   2,Al  1,Al  0,H   4)     72.61  0.000112   -0.08     72.53   
    90. D(H   3,Al  1,Al  0,H   4)    179.18 -0.000011   -0.03    179.16   
    91. D(H   3,Al  1,Al  0,H   6)     50.11  0.000048   -0.12     50.00   
    92. D(H   2,Al  1,Al  0,H   5)   -161.61  0.000116   -0.15   -161.76   
    93. D(H   2,Al  1,Al  0,H  11)     50.86  0.000017   -0.14     50.72   
    94. D(H   3,Al  1,Al  0,H  11)    157.44 -0.000106   -0.09    157.36   
    95. D(Al  8,H   2,Al  1,H   7)    149.05  0.000001    0.04    149.09   
    96. D(Al  8,H   2,Al  1,H   3)    -70.83  0.000016    0.05    -70.78   
    97. D(Al  8,H   2,Al  1,Al  0)     18.05 -0.000027    0.04     18.09   
    98. D(Al  8,H   2,Al  1,H   4)     40.81 -0.000105    0.08     40.89   
    99. D(Al  0,H   4,Al  1,Al  8)    -96.18  0.000026   -0.01    -96.19   
   100. D(Al  1,H   4,Al  0,H   5)    -58.18  0.000024   -0.08    -58.26   
   101. D(Al  0,H   4,Al  1,H   3)     -0.86 -0.000011   -0.03     -0.89   
   102. D(Al  0,H   4,Al  1,H   2)   -111.15  0.000125   -0.08   -111.22   
   103. D(Al  1,H   4,Al  0,Al 12)     57.80  0.000012   -0.07     57.73   
   104. D(Al  1,H   4,Al  0,H  11)    162.18 -0.000105   -0.04    162.14   
   105. D(Al  1,H   4,Al  0,H   6)     50.93  0.000053   -0.09     50.84   
   106. D(Al  0,H   4,Al  1,H   7)    140.82 -0.000017   -0.01    140.81   
   107. D(Al 12,H   6,Al  0,H  11)    -51.70  0.000069   -0.01    -51.71   
   108. D(Al 12,H   6,Al  0,H   5)    167.40 -0.000023    0.01    167.40   
   109. D(Al 12,H   6,Al  0,H   4)     56.40  0.000016    0.00     56.40   
   110. D(Al 12,H   6,Al  0,Al  1)     74.75 -0.000055    0.02     74.77   
   111. D(H   2,Al  8,Al  1,H   3)    114.12 -0.000044    0.08    114.19   
   112. D(H   2,Al  8,Al  1,Al  0)   -162.26 -0.000025    0.04   -162.22   
   113. D(H   2,Al  8,Al  1,H   7)    -37.01  0.000009    0.03    -36.98   
   114. D(H   2,Al  8,Al  1,H   4)   -138.33 -0.000127    0.10   -138.23   
   115. D(H   9,Al  8,Al  1,Al  0)     69.86 -0.000152    0.18     70.04   
   116. D(H  15,Al  8,H   2,Al  1)    -59.97 -0.000041    0.09    -59.87   
   117. D(H  10,Al  8,H   2,Al  1)    159.50 -0.000061    0.09    159.59   
   118. D(H   9,Al  8,H   2,Al  1)     51.40 -0.000101    0.11     51.51   
   119. D(H  10,Al  8,Al  1,Al  0)    172.82 -0.000102    0.14    172.96   
   120. D(H   9,Al  8,Al  1,H   7)   -164.89 -0.000118    0.16   -164.73   
   121. D(H   9,Al  8,Al  1,H   4)     93.79 -0.000254    0.23     94.03   
   122. D(Al 12,Al  8,H   2,Al  1)     28.28 -0.000067    0.08     28.36   
   123. D(H   9,Al  8,Al  1,H   3)    -13.77 -0.000171    0.21    -13.55   
   124. D(H   9,Al  8,Al  1,H   2)   -127.88 -0.000127    0.14   -127.74   
   125. D(Al 12,H   9,Al  8,H  15)     -3.51  0.000041   -0.06     -3.57   
   126. D(Al 12,H   9,Al  8,H  10)    137.99 -0.000031   -0.01    137.98   
   127. D(Al 12,H   9,Al  8,H   2)   -114.00  0.000160   -0.09   -114.09   
   128. D(Al 12,H   9,Al  8,Al  1)    -96.15  0.000055   -0.01    -96.16   
   129. D(Al  0,Al 12,Al  8,H  10)   -172.52 -0.000007   -0.11   -172.63   
   130. D(Al  0,Al 12,Al  8,H   9)   -122.26 -0.000009   -0.07   -122.33   
   131. D(Al  0,Al 12,Al  8,H   2)    -52.37  0.000149   -0.17    -52.54   
   132. D(H  14,Al 12,H   6,Al  0)     57.84 -0.000042    0.08     57.92   
   133. D(H  13,Al 12,H   6,Al  0)   -161.30  0.000017    0.07   -161.23   
   134. D(H   9,Al 12,H   6,Al  0)    -54.37  0.000052    0.06    -54.32   
   135. D(Al  8,Al 12,H   6,Al  0)    -32.64 -0.000028    0.09    -32.55   
   136. D(H   9,Al 12,Al  0,Al  1)     22.12 -0.000021    0.09     22.21   
   137. D(Al  8,Al 12,Al  0,H  11)    -83.16  0.000018    0.08    -83.08   
   138. D(Al  8,Al 12,Al  0,H   6)    146.74 -0.000024    0.09    146.82   
   139. D(Al  8,Al 12,Al  0,H   5)    133.47 -0.000045    0.09    133.56   
   140. D(Al  8,Al 12,Al  0,H   4)     22.51  0.000002    0.08     22.59   
   141. D(Al  8,Al 12,Al  0,Al  1)     42.69 -0.000091    0.11     42.81   
   142. D(Al  0,Al 12,Al  8,Al  1)    -41.75  0.000081   -0.11    -41.86   
   143. D(H   6,Al 12,Al  0,H  11)    130.10  0.000042   -0.00    130.10   
   144. D(H   6,Al 12,Al  0,H   5)    -13.26 -0.000021    0.00    -13.26   
   145. D(H   6,Al 12,Al  0,H   4)   -124.23  0.000026   -0.00   -124.23   
   146. D(Al  0,Al 12,Al  8,H  15)     54.39  0.000029   -0.12     54.27   
   147. D(H   6,Al 12,Al  0,Al  1)   -104.04 -0.000067    0.03   -104.02   
   148. D(H  14,Al 12,H   9,Al  8)    -49.15  0.000124   -0.11    -49.25   
   149. D(H   6,Al 12,H   9,Al  8)     62.77 -0.000045   -0.06     62.71   
   150. D(Al  0,Al 12,H   9,Al  8)     56.07  0.000001   -0.08     55.99   
   151. D(H   6,Al 12,Al  8,H  15)     58.92  0.000004   -0.12     58.80   
   152. D(H   6,Al 12,Al  8,H  10)   -167.99 -0.000033   -0.11   -168.10   
   153. D(H   6,Al 12,Al  8,H   9)   -117.73 -0.000034   -0.06   -117.80   
   154. D(H  13,Al 12,H   9,Al  8)    171.33 -0.000031   -0.07    171.26   
   155. D(H   6,Al 12,Al  8,H   2)    -47.85  0.000123   -0.16    -48.01   
   156. D(H   6,Al 12,Al  8,Al  1)    -37.22  0.000056   -0.11    -37.33   
    ----------------------------------------------------------------------------

Geometry step timings:
Preparation and reading OPT file:      0.000 s ( 0.237 %)
Internal coordinates            :      0.000 s ( 0.382 %)
B/P matrices and projection     :      0.004 s (25.258 %)
Hessian update/contruction      :      0.002 s (11.155 %)
Making the step                 :      0.009 s (51.935 %)
Converting the step to Cartesian:      0.000 s ( 2.323 %)
Storing new data                :      0.000 s ( 0.437 %)
Checking convergence            :      0.000 s ( 0.461 %)
Final printing                  :      0.001 s ( 7.801 %)
Total time                      :      0.016 s

Time for energy+gradient        :     19.801 s
Time for complete geometry iter :     20.599 s

         *************************************************************
         *                GEOMETRY OPTIMIZATION CYCLE   2            *
         *************************************************************
---------------------------------
CARTESIAN COORDINATES (ANGSTROEM)
---------------------------------
  Al     0.653573    1.197198    2.560270
  Al    -0.240891   -0.464017    0.057419
  H      0.485804   -1.997135    0.319953
  H     -1.668941   -0.490728    0.758682
  H      0.847942    0.399585    1.052828
  H     -0.472194    2.306672    2.383723
  H     -0.095262   -0.084910    3.398109
  H      0.124782   -0.066090   -1.436544
  Al     1.141574   -2.795055    1.689759
  H     -0.234312   -2.540243    2.675009
  H      1.140647   -4.342370    1.330220
  H      2.131702    1.363500    3.116522
  Al    -0.435161   -1.600332    4.098262
  H     -2.002746   -1.622209    4.358279
  H      0.738927   -1.955430    5.109064
  H      2.337816   -1.903234    2.242676

----------------------------
CARTESIAN COORDINATES (A.U.)
----------------------------
  NO LB      ZA    FRAG     MASS         X           Y           Z
   0 Al   13.0000    0    26.982    1.235074    2.262377    4.838210
   1 Al   13.0000    0    26.982   -0.455219   -0.876865    0.108506
   2 H     1.0000    0     1.008    0.918036   -3.774038    0.604623
   3 H     1.0000    0     1.008   -3.153841   -0.927342    1.433701
   4 H     1.0000    0     1.008    1.602378    0.755105    1.989557
   5 H     1.0000    0     1.008   -0.892317    4.358978    4.504584
   6 H     1.0000    0     1.008   -0.180020   -0.160457    6.421495
   7 H     1.0000    0     1.008    0.235804   -0.124891   -2.714675
   8 Al   13.0000    0    26.982    2.157262   -5.281889    3.193182
   9 H     1.0000    0     1.008   -0.442785   -4.800364    5.055035
  10 H     1.0000    0     1.008    2.155511   -8.205891    2.513751
  11 H     1.0000    0     1.008    4.028332    2.576641    5.889373
  12 Al   13.0000    0    26.982   -0.822335   -3.024190    7.744593
  13 H     1.0000    0     1.008   -3.784642   -3.065532    8.235955
  14 H     1.0000    0     1.008    1.396370   -3.695227    9.654732
  15 H     1.0000    0     1.008    4.417832   -3.596591    4.238043

--------------------------------
INTERNAL COORDINATES (ANGSTROEM)
--------------------------------
 Al     0   0   0     0.000000000000     0.00000000     0.00000000
 Al     1   0   0     3.134321020357     0.00000000     0.00000000
 H      2   1   0     1.716816939526   103.32014846     0.00000000
 H      2   1   3     1.591166026767    85.01406977   106.63256149
 H      2   1   3     1.709445736245    23.86345990   287.47424933
 H      1   2   3     1.590424868640    94.53612341   198.23747278
 H      1   2   3     1.704854478820    82.44370950   303.36303793
 H      2   1   3     1.588706686326   123.53676363   240.66854338
 Al     3   2   1     1.715541072138   134.36665070    18.08640752
 H      9   3   2     1.711347048920    94.76765601    51.51348359
 H      9   3   2     1.588538000888   105.78926582   159.58596416
 H      1   2   3     1.588060472799   126.92914882    50.72261107
 Al     7   1   2     1.703599294810   163.45098773    74.77208950
 H     13   7   1     1.589154315503   106.03956757   198.77399738
 H     13   7   1     1.589433122693   108.22319200    57.92336482
 H      9   3   2     1.591244028739   107.70623285   300.12670367

---------------------------
INTERNAL COORDINATES (A.U.)
---------------------------
[...]
     47       0.022146  -0.048990   0.014342  -0.020887   0.286037   0.127222
                 42         43         44         45         46         47    
      0       0.007489   0.005006  -0.023628   0.013619   0.031010  -0.005530
      1      -0.013653  -0.000571   0.005373  -0.001252  -0.007372  -0.007404
      2       0.002797   0.002329  -0.005970   0.004025   0.009585   0.006232
      3      -0.005076   0.008474   0.014442   0.008941   0.008807  -0.002631
      4       0.002954   0.002776   0.006431   0.003476   0.001225  -0.002576
      5       0.001285  -0.016890  -0.026879  -0.017187  -0.011840  -0.000351
      6      -0.001824  -0.027001  -0.023161   0.014950  -0.020284  -0.016889
      7       0.004202   0.054440   0.046353  -0.030122   0.035895   0.030582
      8       0.000587  -0.038279  -0.034587   0.014280  -0.025422  -0.021470
      9       0.224739  -0.138134  -0.231742  -0.203866  -0.188818   0.034654
     10       0.003363  -0.000611  -0.003724   0.000222  -0.001277   0.007167
     11      -0.127971   0.071239   0.119771   0.110423   0.101476  -0.016332
     12      -0.052983  -0.001692  -0.033518   0.017124   0.008236   0.030509
     13      -0.093692  -0.004723  -0.051060   0.015978   0.008396   0.058286
     14      -0.135727  -0.010754  -0.081785   0.024122   0.010698   0.102934
     15      -0.389360  -0.017747   0.171344  -0.071016  -0.253986   0.101717
     16       0.398676   0.016238  -0.186777   0.075230   0.264438  -0.138982
     17      -0.066021  -0.001260   0.030770  -0.012566  -0.042657   0.037680
     18      -0.001031   0.007742   0.009723  -0.006754   0.001625   0.314153
     19      -0.010701   0.037523   0.032165  -0.021086  -0.013901   0.762213
     20       0.002655  -0.022033  -0.019332   0.009840   0.008430  -0.415958
     21      -0.026824  -0.072604  -0.117000  -0.062891  -0.041520   0.002599
     22      -0.037254  -0.106185  -0.170742  -0.087813  -0.059651   0.005394
     23       0.146722   0.395772   0.645002   0.336893   0.218101  -0.009512
     24       0.004548   0.002292   0.000954  -0.007385   0.006142  -0.003036
     25      -0.000722   0.016465   0.001726  -0.033810   0.014596  -0.001778
     26       0.003845   0.004541   0.001897  -0.011110   0.005773   0.001728
     27       0.082392  -0.039623   0.009060   0.000495  -0.011227   0.058193
     28      -0.056223   0.026000  -0.005611  -0.007234   0.011089  -0.053347
     29      -0.120909   0.048066  -0.011822  -0.009200   0.018761  -0.086485
     30      -0.012547   0.030856   0.002784  -0.049229   0.017707   0.000760
     31       0.185184  -0.430072  -0.046750   0.724682  -0.277534   0.014973
     32       0.042124  -0.094327  -0.008510   0.160947  -0.060156   0.000555
     33       0.177145  -0.125672   0.463054  -0.291666  -0.579055  -0.150500
     34       0.017150  -0.013491   0.050740  -0.033706  -0.060901  -0.031600
     35       0.071182  -0.046288   0.185173  -0.115108  -0.225648  -0.041804
     36      -0.000241  -0.033572   0.016453  -0.008181   0.021745  -0.000884
     37       0.006398   0.003480  -0.002295   0.000679  -0.003458  -0.010703
     38      -0.011672  -0.009362   0.003790   0.000187   0.006350   0.003871
     39      -0.374631   0.534948  -0.293672   0.180566  -0.308120  -0.182258
     40       0.002751  -0.001207  -0.002399   0.002953  -0.000129  -0.028979
     41       0.062715  -0.097451   0.051684  -0.032044   0.053013   0.042027
     42       0.373231   0.379903  -0.157522   0.039060  -0.274206   0.094990
     43      -0.122946  -0.130425   0.051837  -0.010382   0.091460  -0.055150
     44       0.320166   0.336614  -0.138750   0.030880  -0.237705   0.090373
     45      -0.178172  -0.054518  -0.019406   0.245991  -0.162673   0.035451
     46      -0.156039  -0.040405  -0.014794   0.198582  -0.131504   0.030674
     47      -0.095264  -0.022472  -0.010539   0.126228  -0.083010   0.010723


-----------
IR SPECTRUM
-----------

 Mode   freq       eps      Int      T**2         TX        TY        TZ
       cm**-1   L/(mol*cm) km/mol    a.u.
----------------------------------------------------------------------------
  6:     33.15   0.000056    0.28  0.000528  (-0.013420 -0.012267  0.014066)
  7:     46.19   0.000088    0.44  0.000595  ( 0.006845 -0.017137 -0.015938)
  8:    101.20   0.000074    0.37  0.000228  (-0.002491 -0.012870 -0.007490)
  9:    117.37   0.000109    0.55  0.000289  ( 0.004115 -0.015640 -0.005209)
 10:    144.31   0.000162    0.82  0.000350  (-0.002751 -0.011695 -0.014349)
 11:    149.05   0.000252    1.27  0.000527  (-0.018921 -0.005342  0.011839)
 12:    246.66   0.000337    1.70  0.000426  ( 0.003283 -0.000955  0.020356)
 13:    261.34   0.000120    0.61  0.000144  (-0.002822  0.011632  0.000602)
 14:    295.38   0.001352    6.83  0.001428  ( 0.019802 -0.021420 -0.024031)
 15:    344.58   0.000658    3.32  0.000596  ( 0.010857  0.014581 -0.016284)
 16:    369.90   0.003141   15.87  0.002650  ( 0.001237 -0.032435 -0.039956)
 17:    380.52   0.002375   12.00  0.001948  ( 0.026686  0.030668 -0.017171)
 18:    399.96   0.000184    0.93  0.000143  ( 0.000346  0.000483 -0.011956)
 19:    415.80   0.000113    0.57  0.000085  ( 0.003093  0.007491  0.004350)
 20:    449.52   0.000534    2.70  0.000371  (-0.007749  0.010012  0.014504)
 21:    478.86   0.000982    4.96  0.000640  ( 0.003715  0.022125 -0.011696)
 22:    513.21   0.006167   31.16  0.003750  ( 0.015410  0.051159 -0.029915)
 23:    588.49   0.043687  220.77  0.023166  (-0.018602  0.075885  0.130619)
 24:    667.49   0.108585  548.74  0.050766  ( 0.005484 -0.164216 -0.154171)
 25:    671.24   0.157898  797.95  0.073407  ( 0.059701  0.198766 -0.174171)
 26:    680.81   0.093221  471.10  0.042730  (-0.164405  0.083902 -0.093067)
 27:    692.50   0.005580   28.20  0.002514  (-0.033280  0.011767  0.035614)
 28:    712.08   0.010644   53.79  0.004664  ( 0.018093  0.058127  0.030957)
 29:    718.04   0.024441  123.52  0.010622  ( 0.001922  0.057082 -0.085792)
 30:    727.55   0.019382   97.95  0.008313  (-0.087806 -0.016158  0.018506)
 31:    734.42   0.020141  101.78  0.008558  ( 0.040106 -0.079324 -0.025637)
 32:    748.36   0.009536   48.19  0.003977  ( 0.006002 -0.034412 -0.052502)
 33:   1018.70   0.033973  171.69  0.010407  ( 0.017078 -0.051703 -0.086269)
 34:   1052.30   0.014522   73.39  0.004307  ( 0.061463  0.013914 -0.018308)
 35:   1081.11   0.017538   88.63  0.005062  ( 0.057512  0.036243  0.021007)
 36:   1724.31   0.043262  218.63  0.007829  (-0.008960 -0.059151  0.065195)
 37:   1781.27   0.177863  898.85  0.031160  ( 0.056266 -0.122034 -0.114463)
 38:   1798.03   0.121535  614.19  0.021093  (-0.079868  0.027334 -0.118183)
 39:   1880.51   0.078069  394.53  0.012955  (-0.018978 -0.096997  0.056450)
 40:   1893.76   0.009402   47.51  0.001549  ( 0.004162 -0.029011 -0.026273)
 41:   1896.29   0.007124   36.00  0.001172  (-0.020444 -0.012842  0.024280)
 42:   1897.98   0.001025    5.18  0.000169  ( 0.012109 -0.004029 -0.002387)
 43:   1912.42   0.016054   81.13  0.002620  (-0.028733  0.030602 -0.029283)
 44:   1913.68   0.010398   52.55  0.001696  ( 0.010025  0.013660 -0.037531)
 45:   1914.42   0.026468  133.76  0.004314  ( 0.013253 -0.047506 -0.043381)
 46:   1918.98   0.060741  306.96  0.009878  ( 0.098201  0.008627  0.012639)
 47:   1980.12   0.134627  680.35  0.021217  (-0.047647 -0.120704  0.066162)

* The epsilon (eps) is given for a Dirac delta lineshape.
** The dipole moment derivative (T) already includes vibrational overlap.

The first frequency considered to be a vibration is 6
The total number of vibrations considered is 42


--------------------------
THERMOCHEMISTRY AT 298.15K
--------------------------

Temperature         ...   298.15 K
Pressure            ...     1.00 atm
Total Mass          ...   120.02 AMU
Quasi RRHO          ...     True
Cut-Off Frequency   ...     1.00 cm^-1

Throughout the following assumptions are being made:
  (1) The electronic state is orbitally nondegenerate
  (2) There are no thermally accessible electronically excited states
  (3) Hindered rotations indicated by low frequency modes are not
      treated as such but are treated as vibrations and this may
      cause some error
  (4) All equations used are the standard statistical mechanics
      equations for an ideal gas
  (5) All vibrations are strictly harmonic

freq.      33.15  E(vib)   ...       0.55 
freq.      46.19  E(vib)   ...       0.53 
freq.     101.20  E(vib)   ...       0.46 
freq.     117.37  E(vib)   ...       0.44 
freq.     144.31  E(vib)   ...       0.41 
freq.     149.05  E(vib)   ...       0.40 
freq.     246.66  E(vib)   ...       0.31 
freq.     261.34  E(vib)   ...       0.30 
freq.     295.38  E(vib)   ...       0.27 
freq.     344.58  E(vib)   ...       0.23 
freq.     369.90  E(vib)   ...       0.21 
freq.     380.52  E(vib)   ...       0.21 
freq.     399.96  E(vib)   ...       0.19 
freq.     415.80  E(vib)   ...       0.18 
freq.     449.52  E(vib)   ...       0.17 
freq.     478.86  E(vib)   ...       0.15 
freq.     513.21  E(vib)   ...       0.13 
freq.     588.49  E(vib)   ...       0.10 
freq.     667.49  E(vib)   ...       0.08 
freq.     671.24  E(vib)   ...       0.08 
freq.     680.81  E(vib)   ...       0.08 
freq.     692.50  E(vib)   ...       0.07 
freq.     712.08  E(vib)   ...       0.07 
freq.     718.04  E(vib)   ...       0.07 
freq.     727.55  E(vib)   ...       0.06 
freq.     734.42  E(vib)   ...       0.06 
freq.     748.36  E(vib)   ...       0.06 
freq.    1018.70  E(vib)   ...       0.02 
freq.    1052.30  E(vib)   ...       0.02 
freq.    1081.11  E(vib)   ...       0.02 
freq.    1724.31  E(vib)   ...       0.00 
freq.    1781.27  E(vib)   ...       0.00 
freq.    1798.03  E(vib)   ...       0.00 
freq.    1880.51  E(vib)   ...       0.00 
freq.    1893.76  E(vib)   ...       0.00 
freq.    1896.29  E(vib)   ...       0.00 
freq.    1897.98  E(vib)   ...       0.00 
freq.    1912.42  E(vib)   ...       0.00 
freq.    1913.68  E(vib)   ...       0.00 
freq.    1914.42  E(vib)   ...       0.00 
freq.    1918.98  E(vib)   ...       0.00 
freq.    1980.12  E(vib)   ...       0.00 

------------
INNER ENERGY
------------

The inner energy is: U= E(el) + E(ZPE) + E(vib) + E(rot) + E(trans)
    E(el)   - is the total energy from the electronic structure calculation
              = E(kin-el) + E(nuc-el) + E(el-el) + E(nuc-nuc)
    E(ZPE)  - the the zero temperature vibrational energy from the frequency calculation
    E(vib)  - the the finite temperature correction to E(ZPE) due to population
              of excited vibrational states
    E(rot)  - is the rotational thermal energy
    E(trans)- is the translational thermal energy

Summary of contributions to the inner energy U:
Electronic energy                ...   -976.34813559 Eh
Zero point energy                ...      0.08509382 Eh      53.40 kcal/mol
Thermal vibrational correction   ...      0.00946046 Eh       5.94 kcal/mol
Thermal rotational correction    ...      0.00141627 Eh       0.89 kcal/mol
Thermal translational correction ...      0.00141627 Eh       0.89 kcal/mol
-----------------------------------------------------------------------
Total thermal energy                   -976.25074876 Eh


Summary of corrections to the electronic energy:
(perhaps to be used in another calculation)
Total thermal correction                  0.01229300 Eh       7.71 kcal/mol
Non-thermal (ZPE) correction              0.08509382 Eh      53.40 kcal/mol
-----------------------------------------------------------------------
Total correction                          0.09738682 Eh      61.11 kcal/mol


--------
ENTHALPY
--------

The enthalpy is H = U + kB*T
                kB is Boltzmann's constant
Total thermal energy              ...   -976.25074876 Eh 
Thermal Enthalpy correction       ...      0.00094421 Eh       0.59 kcal/mol
-----------------------------------------------------------------------
Total Enthalpy                    ...   -976.24980455 Eh


Note: Only C1 symmetry has been detected, increase convergence thresholds 
      if your molecule has a higher symmetry. Symmetry factor of 1.0 is   
      used for the rotational entropy correction. 
 

Note: Rotational entropy computed according to Herzberg 
Infrared and Raman Spectra, Chapter V,1, Van Nostrand Reinhold, 1945 
Point Group:  C1, Symmetry Number:   1  
Rotational constants in cm-1:     0.054892     0.049284     0.032283 

Vibrational entropy computed according to the QRRHO of S. Grimme
Chem.Eur.J. 2012 18 9955 using a reference frequency of 100.0 cm-1


-------
ENTROPY
-------

The entropy contributions are T*S = T*(S(el)+S(vib)+S(rot)+S(trans))
     S(el)   - electronic entropy
     S(vib)  - vibrational entropy
     S(rot)  - rotational entropy
     S(trans)- translational entropy
The entropies will be listed as multiplied by the temperature to get
units of energy

Electronic entropy                ...      0.00000000 Eh      0.00 kcal/mol
Vibrational entropy               ...      0.01651693 Eh     10.36 kcal/mol
Rotational entropy                ...      0.01392285 Eh      8.74 kcal/mol
Translational entropy             ...      0.01912974 Eh     12.00 kcal/mol
-----------------------------------------------------------------------
Final entropy term                ...      0.04956952 Eh     31.11 kcal/mol

In case the symmetry of your molecule has not been determined correctly
or in case you have a reason to use a different symmetry number we print 
out the resulting rotational entropy values for sn=1,12:

 non-linear molecules -----------------------------------
|  sn= 1 | S(rot)=       0.01392285 Eh      8.74 kcal/mol|
|  sn= 2 | S(rot)=       0.01326839 Eh      8.33 kcal/mol|
|  sn= 3 | S(rot)=       0.01288556 Eh      8.09 kcal/mol|
|  sn= 4 | S(rot)=       0.01261393 Eh      7.92 kcal/mol|
|  sn= 5 | S(rot)=       0.01240324 Eh      7.78 kcal/mol|
|  sn= 6 | S(rot)=       0.01223110 Eh      7.68 kcal/mol|
|  sn= 7 | S(rot)=       0.01208555 Eh      7.58 kcal/mol|
|  sn= 8 | S(rot)=       0.01195948 Eh      7.50 kcal/mol|
|  sn= 9 | S(rot)=       0.01184827 Eh      7.43 kcal/mol|
|  sn=10 | S(rot)=       0.01174879 Eh      7.37 kcal/mol|
|  sn=11 | S(rot)=       0.01165880 Eh      7.32 kcal/mol|
|  sn=12 | S(rot)=       0.01157664 Eh      7.26 kcal/mol|
 linear molecules ---------------------------------------
|  Dinfh | S(rot)=       0.00856737 Eh      5.38 kcal/mol|
|  Cinfv | S(rot)=       0.00922183 Eh      5.79 kcal/mol|
 --------------------------------------------------------


-------------------
GIBBS FREE ENERGY
-------------------

The Gibbs free energy is G = H - T*S

Total enthalpy                    ...   -976.24980455 Eh 
Total entropy correction          ...     -0.04956952 Eh    -31.11 kcal/mol
-----------------------------------------------------------------------
Final Gibbs free energy         ...   -976.29937407 Eh

For completeness - the Gibbs free energy minus the electronic energy
G-E(el)                           ...      0.04876152 Eh     30.60 kcal/mol


Maximum memory used throughout the entire PROP-calculation: 33.4 MB

--------------------------------
SUGGESTED CITATIONS FOR THIS RUN
--------------------------------

Below you find a list of papers that are relevant to this ORCA run
We neither can nor want to force you to cite these papers, but we appreciate if you do
You receive ORCA, which is the product of decades of hard work by many enthusiastic individuals, for free
The only thing we kindly ask in return is that you cite our papers,
We deeply appreciate it, if you show your appreciation for ORCA by not just citing the generic ORCA reference.

Please note that relegating all ORCA citations to the supporting information does *not* help us.
SI sections are not indexed - citations you put there will not count into any citation statistics
But we need these citations in order to attract the funding resources that allow us to do what we are doing

Therefore, if you are a happy ORCA user, please consider citing a few of the papers listed below in the main body of your paper

In addition to the list printed below, the program has created the file run.bibtex that contains the list in bibtex format
You can import this file easily into all common literature databanks and citation aid programs


List of essential papers. We consider these as the minimum necessary citations

  1. Neese, F.
     Software update: the ORCA program system, version 6.0
     WIRES Comput. Molec. Sci. 2025 15(1), e70019
     doi.org/10.1002/wcms.7019

List of papers to cite with high priority. The work reported in these papers was absolutely
necessary for this run to complete.
Our perspective: the developers of density functionals and basis sets usually get cited in chemistry papers
Good! But without the algorithms to do something with them, the functionals or basis sets would not do anything.
Hence, in our opinion, the algorithm design and method developments papers are equally worthy of getting cited

  1. Neese, F.
     An improvement of the resolution of the identity approximation for the formation of the Coulomb matrix
     J. Comp. Chem. 2003 24(14), 1740-1747
     doi.org/10.1002/jcc.10318
  2. Grimme, S.; Antony, J.; Ehrlich, S.; Krieg, H.
     A consistent and accurate ab initio parametrization of density functional dispersion correction (DFT-D) for the 94 elements H-Pu
     J. Chem. Phys. 2010 132 , 154104
     doi.org/10.1063/1.3382344
  3. Grimme, S.; Ehrlich, S.; Goerigk, L.
     Effect of the damping function in dispersion corrected density functional theory
     J. Comput. Chem. 2011 32(7), 1456-1465
     doi.org/10.1002/jcc.21759
  4. Bykov, D.; Petrenko, T.; Izsak, R.; Kossmann, S.; Becker, U.; Valeev, E.; Neese, F.
     Efficient implementation of the analytic second derivatives of Hartree-Fock and hybrid DFT energies: a detailed analysis of different approximations
     Molec. Phys. 2015 113 , 1961-1977
     doi.org/10.1080/00268976.2015.1025114
  5. Neese, F.
     The SHARK Integral Generation and Digestion System
     J. Comp. Chem. 2022 44(3), 381
     doi.org/10.1002/jcc.26942

List of suggested additional citations. These are papers that are important in the 'surrounding' of 
of this run, or papers that preceded the highly important papers. If you like your results we are grateful for a citation.

  1. Neese, F.
     The ORCA program system
     WIRES Comput. Molec. Sci. 2012 2(1), 73-78
     doi.org/10.1002/wcms.81
  2. Neese, F.
     Software update: the ORCA program system, version 4.0
     WIRES Comput. Molec. Sci. 2018 8(1), 1-6
     doi.org/10.1002/wcms.1327
  3. Neese, F.; Wennmohs, F.; Becker, U.; Riplinger, C.
     The ORCA quantum chemistry program package
     J. Chem. Phys. 2020 152(22), 224108
     doi.org/10.1063/5.0004608
  4. Neese, F.
     Software update: The ORCA program system—Version 5.0
     WIRES Comput. Molec. Sci. 2022 12(1), e1606
     doi.org/10.1002/wcms.1606

List of optional additional citations

  1. Neese, F.
     Approximate second-order SCF convergence for spin unrestricted wavefunctions
     Chem. Phys. Lett. 2000 325(1-3), 93-98
     doi.org/10.1016/s0009-2614(00)00662-x

Timings for individual modules:

Sum of individual times          ...      361.624 sec (=   6.027 min)
Startup calculation              ...      109.659 sec (=   1.828 min)  30.3 %
SCF iterations                   ...       93.812 sec (=   1.564 min)  25.9 %
Property integrals               ...       52.018 sec (=   0.867 min)  14.4 %
SCF Response                     ...       17.496 sec (=   0.292 min)   4.8 %
Property calculations            ...       20.306 sec (=   0.338 min)   5.6 %
SCF Gradient evaluation          ...       68.012 sec (=   1.134 min)  18.8 %
Geometry relaxation              ...        0.320 sec (=   0.005 min)   0.1 %
                             ****ORCA TERMINATED NORMALLY****
TOTAL RUN TIME: 0 days 0 hours 6 minutes 19 seconds 224 msec
