
                                 *****************
                                 * O   R   C   A *
                                 *****************

                                            #,                                       
                                            ###                                      
                                            ####                                     
                                            #####                                    
                                            ######                                   
                                           ########,                                 
                                     ,,################,,,,,                         
                               ,,#################################,,                 
                          ,,##########################################,,             
                       ,#########################################, ''#####,          
                    ,#############################################,,   '####,        
                  ,##################################################,,,,####,       
                ,###########''''           ''''###############################       
              ,#####''   ,,,,##########,,,,          '''####'''          '####       
            ,##' ,,,,###########################,,,                        '##       
           ' ,,###''''                  '''############,,,                           
         ,,##''                                '''############,,,,        ,,,,,,###''
      ,#''                                            '''#######################'''  
     '                                                          ''''####''''         
             ,#######,   #######,   ,#######,      ##                                
            ,#'     '#,  ##    ##  ,#'     '#,    #''#        ,####,    ,#,          
            ##       ##  ##   ,#'  ##            #'  '#       #'       ,# #          
            ##       ##  #######   ##           ,######,      #####,      #          
            '#,     ,#'  ##    ##  '#,     ,#' ,#      #,     #,   #      #          
             '#######'   ##     ##  '#######'  #'      '#     '####' #    #          



                #########################################################
                #                        -***-                          #
                #          Department of theory and spectroscopy        #
                #                                                       #
                #                      Frank Neese                      #
                #                                                       #
                #     Directorship, Architecture, Infrastructure        #
                #                    SHARK, DRIVERS                     #
                #        Core code/Algorithms in most modules           #
                #                                                       #
                #        Max Planck Institute fuer Kohlenforschung      #
                #                Kaiser Wilhelm Platz 1                 #
                #                 D-45470 Muelheim/Ruhr                 #
                #                      Germany                          #
                #                                                       #
                #                  All rights reserved                  #
                #                        -***-                          #
                #########################################################


                         Program Version 6.1.0  -  RELEASE   -
                                (GIT: $679e74b$)
                          ($2025-06-10 18:02:51 +0200$)


 With contributions from (in alphabetic order):
[Max-Planck-Institut fuer Kohlenforschung]                               
  Daniel Aravena         : Magnetic Suceptibility                        
  Michael Atanasov       : Ab Initio Ligand Field Theory (pilot matlab implementation)
  Alexander A. Auer      : GIAO ZORA, VPT2 properties, NMR spectrum      
  Ute Becker             : All parallelization in ORCA, NUMFREQ, NUMCALC 
  Giovanni Bistoni       : ED, misc. LED, open-shell LED, HFLD           
  Dmytro Bykov           : pre 5.0 version of the SCF Hessian            
  Marcos Casanova-Páez   : Triplet and SCS-CIS(D). UHF-(DLPNO)-IP/EA/STEOM-CCSD. UHF-CVS-IP/STEOM-CCSD   
  Vijay G. Chilkuri      : MRCI spin determinant printing, contributions to CSF-ICE 
  Pauline Colinet        : FMM embedding                                 
  Dipayan Datta          : RHF DLPNO-CCSD density                        
  Achintya Kumar Dutta   : EOM-CC, STEOM-CC                              
  Nicolas Foglia         : Exact transition moments, OPA infrastructure, MCD improvements    
  Dmitry Ganyushin       : Spin-Orbit,Spin-Spin,Magnetic field MRCI      
  Miquel Garcia-Rates    : C-PCM and meta-GGA Hessian, CCSD/C-PCM, Gaussian charge scheme 
  Tiago L. C. Gouveia    : GS-ROHF, GS-ROCIS                             
  Yang Guo               : DLPNO-NEVPT2, F12-NEVPT2, CIM, IAO-localization        
  Andreas Hansen         : Spin unrestricted coupled pair/coupled cluster methods 
  Ingolf Harden          : AUTO-CI MPn and infrastructure                
  Benjamin Helmich-Paris : MC-RPA, TRAH-(SCF,CASSCF), AVAS, COSX integrals, SCF dyn. polar., MC-PDFT, srDFT 
  Lee Huntington         : MR-EOM, pCC                                   
  Robert Izsak           : Overlap fitted RIJCOSX, COSX-SCS-MP3, EOM     
  Riya Kayal             : Wick's Theorem for AUTO-CI, AUTO-CI UHF-CCSDT 
  Emily Kempfer          : AUTO-CI RHF CISDT and CCSDT, approximate NEVPT4
  Christian Kollmar      : KDIIS, OOCD, Brueckner-CCSD(T), CCSD density, CASPT2, CASPT2-K, improved NEVPT2 
  Axel Koslowski         : Symmetry handling                             
  Simone Kossmann        : meta-GGA functionals, TD-DFT gradient, OOMP2, (MP2 Hessian; deprecated post 5.0) 
  Lucas Lang             : DCDCAS, Hyperfine gauge corrections, ICE-SOC+SSC
  Marvin Lechner         : AUTO-CI (C++ implementation), FIC-MRCC        
  Spencer Leger          : CASSCF response                               
  Dagmar Lenk            : GEPOL surface, SMD, ORCA-2-JSON               
  Dimitrios Liakos       : Extrapolation schemes; Compound Job, Property file
  Dimitrios Manganas     : Further ROCIS development; embedding schemes. LFT, Crystal Embedding 
  Dimitrios Pantazis     : SARC Basis sets                               
  Anastasios Papadopoulos: AUTO-CI, single reference methods and gradients 
  Taras Petrenko         : pre 6.0 DFT Hessian and TD-DFT gradient,  ECA, NRVS 
  Petra Pikulova         : Analytic Raman intensities                    
  Peter Pinski           : DLPNO-MP2, DLPNO-MP2 Gradient                 
  Shashank Vittal Rao    : ES-AILFT, MagRelax                            
  Christoph Reimann      : Effective Core Potentials                     
  Marius Retegan         : Local ZFS, SOC                                
  Christoph Riplinger    : Optimizer, TS searches, QM/MM, DLPNO-CCSD(T), (RO)-DLPNO pert. Triples 
  Michael Roemelt        : Original ROCIS implementation, recursive CI coupling coefficients
  Masaaki Saitow         : Open-shell DLPNO-CCSD energy and density      
  Barbara Sandhoefer     : DKH picture change effects                    
  Yorick L. A. Schmerwitz: GMF and freeze-and-release deltaSCF, NEB S-IDPP initial path                    
  Kantharuban Sivalingam : CASSCF convergence/infrastructure, NEVPT2, NEVPT3, NEVPT4(SD), FIC-MRCI and CEPA variants
  Bernardo de Souza      : ESD, SOC TD-DFT                               
  Georgi L. Stoychev     : AutoAux, RI-MP2 NMR, DLPNO-MP2 response, X2C  
  Van Anh Tran           : RI-MP2 g-tensors                              
  Willem Van den Heuvel  : Paramagnetic NMR                              
  Zikuan Wang            : NOTCH, Electric field optimization            
  Frank Wennmohs         : Technical directorship and infrastructure     
  Hang Xu                : AUTO-CI-Response properties                   
                                                                         
[FACCTs GmbH]                                                            
  Markus Bursch, Nicolas Foglia, Miquel Garcia-Rates, Ingolf Harden, Hagen Neugebauer, Anastasios Papadopoulos, 
  Christoph Riplinger, Bernardo de Souza, Georgi L. Stoychev                                                    
                                                                 
  APM, various basis sets, CI-OPT, improved COSX, DLPNO-Multilevel,           
  DOCKER, DRACO, updates on ESD, Fragmentator, GOAT, IRC, LR-CPCM, L-BFGS, MBIS, meta-GGA TD-DFT gradient, ML-optimized integration grids, 
  MM, NACMEs, nearIR, NEB, NEB-TS, NL-DFT gradient (VV10), 2- and 3-layer-ONIOM, interface openCOSMO-RS, QMMM,   
  Crystal-QMMM, RESP, rigid body optimization, SF, symmetry and pop. for TD-DFT, various functionals, SOLVATOR                                   
                                                                         
[Other institutions]                                                     
  V. Asgeirsson          : NEB                                           
  Christoph Bannwarth    : sTDA-DFT, sTD-DFT, PBEh-3c, B97-3c, D3        
  Giovanni Bistoni       : ETS/NOCV, ADLD/ADEX, COVALED                  
  Martin Brehm           : Molecular dynamics                            
  Ronald Cardenas        : ETS/NOCV                                      
  Martina Colucci        : COVALED                                       
  Sebastian Ehlert       : rSCAN, r2SCAN, r2SCAN-3c, D4, dhf basis sets  
  Marvin Friede          : D4 for Fr, Ra, Ac-Lr                          
  Lars Goerigk           : TD-DFT with DH, B97 family of functionals     
  Stefan Grimme          : VdW corrections, initial TS optimization, DFT functionals, gCP, sTDA/sTD-DF 
  Waldemar Hujo          : DFT-NL                                        
  H. Jonsson             : NEB                                           
  Holger Kruse           : gCP                                           
  Marcel Mueller         : wB97X-3c, vDZP basis set                      
  Hagen Neugebauer       : wr2SCAN, Native XTB                           
  Gianluca Regni         : ADLD/ADEX                                     
  Tobias Risthaus        : pre 6.0 range-separated hybrid DFT and stability analysis
  Lukas Wittmann         : regularized MP2, r2SCAN double-hybrids, wr2SCAN        
                                                                         
We gratefully acknowledge several colleagues who have allowed us to      
interface, adapt or use parts of their codes:                            
  Ed Valeev, F. Pavosevic, A. Kumar             : LibInt (2-el integral package), F12 methods 
  Garnet Chan, S. Sharma, J. Yang, R. Olivares  : DMRG                   
  Ulf Ekstrom                                   : XCFun DFT Library      
  Mihaly Kallay                                 : mrcc  (arbitrary order and MRCC methods)
  Frank Weinhold                                : gennbo (NPA and NBO analysis)           
  Simon Mueller                                 : openCOSMO-RS                            
  Christopher J. Cramer and Donald G. Truhlar   : smd solvation model                     
  S Lehtola, MJT Oliveira, MAL Marques          : LibXC Library                           
  Liviu Ungur et al                             : ANISO software                          


 Your calculation uses the libint2 library for the computation of 2-el integrals
 For citations please refer to: http://libint.valeyev.net

 Your ORCA version has been built with support for libXC version: 7.0.0
 For citations please refer to: https://libxc.gitlab.io

 This ORCA versions uses:
   CBLAS   interface :  Fast vector & matrix operations
   LAPACKE interface :  Fast linear algebra routines
   SCALAPACK package :  Parallel linear algebra routines
   Shared memory     :  Shared parallel matrices
   BLAS/LAPACK       :  OpenBLAS 0.3.29  USE64BITINT DYNAMIC_ARCH NO_AFFINITY Bulldozer SINGLE_THREADED
        Core in use  :  Bulldozer
   Copyright (c) 2011-2014, The OpenBLAS Project


  ***********************************
  * Starting time: Sun Aug 17 22:49:16 2025
  * Host name:     chromium05
  * Process ID:    449995
  * Working dir.:  /local/scratch/mehlhorn/62104
  ***********************************



***************************************
The coordinates will be read from file: start.xyz
***************************************


Your calculation utilizes the geometrical counterpoise correction gCP
Please cite in your paper:
H.Kruse, S. Grimme J.Chem.Phys., 136, (2012), 154101 
   

Your calculation utilizes the atom-pairwise dispersion correction
with the Becke-Johnson damping scheme (D3BJ)


Your calculation employs the composite approach PBEh-3c.
Please cite in your paper:
Grimme, S.; Brandenburg, J. G.; Bannwarth, C.; Hansen A. J. Chem. Phys. 2015, 143, 054107 
   

================================================================================

----- Orbital basis set information -----
Your calculation utilizes the basis: def2-mSVP

----- AuxJ basis set information -----
Your calculation utilizes the auxiliary basis: def2-mSVP/J
================================================================================
                                        WARNINGS
                       Please study these warnings very carefully!
================================================================================


WARNING: Geometry Optimization
  ===> : Switching off AutoStart
         For restart on a previous wavefunction, please use MOREAD

================================================================================
                                       INPUT FILE
================================================================================
NAME = run.inp
|  1> # Geometry optimization for (AlH3)n cluster
|  2> 
|  3> %pal nprocs 24  end
|  4> 
|  5> %geom MaxIter 500 end
|  6> 
|  7> %elprop Polar 1 end # invoke raman
|  8> 
|  9> ! PBEh-3c
| 10> ! RKS	# closed shell for AlH3
| 11> ! Freq 	# Frequency analysis to check the stabiltity of the structures
| 12> 
| 13> 
| 14> ! NoPop # population analysis not necessary	
| 15> 
| 16> ! DEFGRID3
| 17> ! ExtremeSCF
| 18> ! VeryTightOpt
| 19> 
| 20> 
| 21> ! SmallPrint
| 22> 
| 23> 
| 24> * xyzFile 0 1 start.xyz # only maingroup elements H and Al so there should be no net spin
| 25> 
| 26>                          ****END OF INPUT****
================================================================================

                       *****************************
                       * Geometry Optimization Run *
                       *****************************

Geometry optimization settings:
Update method            Update   .... BFGS
Choice of coordinates    CoordSys .... (2022) Redundant Internals
Initial Hessian          InHess   .... Almloef's Model
Max. no of cycles        MaxIter  .... 500

Convergence Tolerances:
Energy Change            TolE     ....  2.0000e-07 Eh
Max. Gradient            TolMAXG  ....  3.0000e-05 Eh/bohr
RMS Gradient             TolRMSG  ....  8.0000e-06 Eh/bohr
Max. Displacement        TolMAXD  ....  2.0000e-04 bohr
RMS Displacement         TolRMSD  ....  1.0000e-04 bohr
Strict Convergence                .... False

------------------------------------------------------------------------------
                        ORCA OPTIMIZATION COORDINATE SETUP
------------------------------------------------------------------------------

The optimization will be done in redundant internal coordinates (2022)
Making redundant internal coordinates   ...  (2022 redundants) done
Evaluating the initial hessian          ...  (Almloef) done
Evaluating the coordinates              ...  done
Calculating the B-matrix                .... done
Calculating the G-matrix                .... done
The number of degrees of freedom        ....   51

    -----------------------------------------------------------------
                    Redundant Internal Coordinates


    -----------------------------------------------------------------
         Definition                    Initial Value    Approx d2E/dq
    -----------------------------------------------------------------
      1. B(Al  1,Al  0)                  2.6134         0.342843   
      2. B(H   2,Al  0)                  1.7504         0.223024   
      3. B(H   2,Al  1)                  1.7504         0.223024   
      4. B(H   3,Al  1)                  1.5867         0.406949   
      5. B(H   4,Al  1)                  1.7504         0.223023   
      6. B(H   4,Al  0)                  1.7504         0.223023   
      7. B(H   5,Al  0)                  1.5867         0.407018   
      8. B(H   6,Al  0)                  1.5867         0.406949   
      9. B(H   7,Al  1)                  1.5867         0.407018   
     10. A(H   2,Al  0,H   5)          109.0099         0.348720   
     11. A(Al  1,Al  0,H   5)          116.0602         0.438192   
     12. A(H   4,Al  0,H   6)          108.9002         0.348710   
     13. A(H   4,Al  0,H   5)          109.0117         0.348720   
     14. A(Al  1,Al  0,H   4)           41.7120         0.393741   
     15. A(H   2,Al  0,H   4)           83.4234         0.315658   
     16. A(Al  1,Al  0,H   2)           41.7120         0.393741   
     17. A(H   5,Al  0,H   6)          128.4101         0.386592   
     18. A(H   2,Al  0,H   6)          108.9021         0.348710   
     19. A(Al  1,Al  0,H   6)          115.5298         0.438179   
     20. A(H   4,Al  1,H   7)          109.0105         0.348720   
     21. A(H   2,Al  1,H   3)          108.9012         0.348710   
     22. A(H   3,Al  1,H   4)          108.9015         0.348710   
     23. A(Al  0,Al  1,H   2)           41.7120         0.393741   
     24. A(H   2,Al  1,H   4)           83.4233         0.315658   
     25. A(Al  0,Al  1,H   4)           41.7120         0.393741   
     26. A(Al  0,Al  1,H   3)          115.5300         0.438179   
     27. A(Al  0,Al  1,H   7)          116.0599         0.438192   
     28. A(H   2,Al  1,H   7)          109.0108         0.348720   
     29. A(H   3,Al  1,H   7)          128.4101         0.386592   
     30. A(Al  0,H   2,Al  1)           96.5760         0.315658   
     31. A(Al  0,H   4,Al  1)           96.5759         0.315658   
     32. D(H   4,Al  1,Al  0,H   2)   -179.5780         0.010000   
     33. D(H   3,Al  1,Al  0,H   4)    -90.2113         0.010000   
     34. D(H   3,Al  1,Al  0,H   2)     90.2107         0.010000   
     35. D(H   2,Al  1,Al  0,H   6)    -90.2125         0.010000   
     36. D(H   3,Al  1,Al  0,H   5)    179.9984         0.010000   
     37. D(H   3,Al  1,Al  0,H   6)     -0.0018         0.010000   
     38. D(H   2,Al  1,Al  0,H   5)     89.7876         0.010000   
     39. D(H   2,Al  1,Al  0,H   4)    179.5780         0.010000   
     40. D(Al  0,H   2,Al  1,H   7)    108.1668         0.010000   
     41. D(Al  0,H   2,Al  1,H   4)      0.2827         0.010000   
     42. D(Al  0,H   2,Al  1,H   3)   -107.4874         0.010000   
     43. D(Al  1,H   2,Al  0,H   6)    107.4861         0.010000   
     44. D(Al  1,H   2,Al  0,H   5)   -108.1680         0.010000   
     45. D(Al  1,H   2,Al  0,H   4)     -0.2827         0.010000   
     46. D(Al  1,H   4,Al  0,H   2)      0.2827         0.010000   
     47. D(Al  0,H   4,Al  1,H   7)   -108.1671         0.010000   
     48. D(Al  0,H   4,Al  1,H   3)    107.4871         0.010000   
     49. D(Al  0,H   4,Al  1,H   2)     -0.2827         0.010000   
     50. D(Al  1,H   4,Al  0,H   6)   -107.4881         0.010000   
     51. D(Al  1,H   4,Al  0,H   5)    108.1662         0.010000   
    -----------------------------------------------------------------

Number of atoms                         .... 8
Number of degrees of freedom            .... 51


         *************************************************************
         *                GEOMETRY OPTIMIZATION CYCLE   1            *
         *************************************************************
---------------------------------
CARTESIAN COORDINATES (ANGSTROEM)
---------------------------------
  Al     0.000064   -0.002698    2.341285
  Al    -0.000326   -0.002155   -0.272083
  H      1.163599   -0.050069    1.034418
  H     -0.064257   -1.432370   -0.956215
  H     -1.163479    0.053786    1.034787
  H      0.063751    1.421088    3.038615
  H     -0.063706   -1.433198    3.024837
  H      0.063113    1.421926   -0.968834

----------------------------
CARTESIAN COORDINATES (A.U.)
----------------------------
  NO LB      ZA    FRAG     MASS         X           Y           Z
   0 Al   13.0000    0    26.982    0.000122   -0.005099    4.424388
   1 Al   13.0000    0    26.982   -0.000616   -0.004072   -0.514161
   2 H     1.0000    0     1.008    2.198883   -0.094616    1.954767
   3 H     1.0000    0     1.008   -0.121427   -2.706787   -1.806984
   4 H     1.0000    0     1.008   -2.198656    0.101640    1.955464
   5 H     1.0000    0     1.008    0.120472    2.685468    5.742150
   6 H     1.0000    0     1.008   -0.120386   -2.708352    5.716113
   7 H     1.0000    0     1.008    0.119267    2.687050   -1.830831

--------------------------------
INTERNAL COORDINATES (ANGSTROEM)
--------------------------------
 Al     0   0   0     0.000000000000     0.00000000     0.00000000
 Al     1   0   0     2.613367926960     0.00000000     0.00000000
 H      1   2   0     1.750416539635    41.71200813     0.00000000
 H      2   1   3     1.586706843332   115.52999831    90.21074512
 H      1   2   3     1.750417509707    41.71203470   179.57798527
 H      1   2   3     1.586660791281   116.06015838    89.78761863
 H      1   2   3     1.586707007941   115.52976841   269.78750432
 H      2   1   3     1.586661103785   116.05994873   270.21079793

---------------------------
INTERNAL COORDINATES (A.U.)
---------------------------
 Al     0   0   0     0.000000000000     0.00000000     0.00000000
 Al     1   0   0     4.938549669129     0.00000000     0.00000000
 H      1   2   0     3.307807880197    41.71200813     0.00000000
 H      2   1   3     2.998441388717   115.52999831    90.21074512
 H      1   2   3     3.307809713367    41.71203470   179.57798527
 H      1   2   3     2.998354362952   116.06015838    89.78761863
 H      1   2   3     2.998441699783   115.52976841   269.78750432
 H      2   1   3     2.998354953498   116.05994873   270.21079793

---------------------
BASIS SET INFORMATION
---------------------
There are 2 groups of distinct atoms

 Group   1 Type Al  : 10s7p1d contracted to 4s3p1d pattern {5311/511/1}
 Group   2 Type H   : 4s contracted to 2s pattern {31}

Atom   0Al   basis set group =>   1
Atom   1Al   basis set group =>   1
Atom   2H    basis set group =>   2
Atom   3H    basis set group =>   2
Atom   4H    basis set group =>   2
Atom   5H    basis set group =>   2
Atom   6H    basis set group =>   2
Atom   7H    basis set group =>   2
---------------------------------
AUXILIARY/J BASIS SET INFORMATION
---------------------------------
There are 2 groups of distinct atoms

 Group   1 Type Al  : 14s5p5d2f1g contracted to 8s4p3d1f1g pattern {71111111/2111/311/2/1}
 Group   2 Type H   : 5s2p1d contracted to 3s1p1d pattern {311/2/1}

Atom   0Al   basis set group =>   1
Atom   1Al   basis set group =>   1
Atom   2H    basis set group =>   2
Atom   3H    basis set group =>   2
Atom   4H    basis set group =>   2
Atom   5H    basis set group =>   2
Atom   6H    basis set group =>   2
Atom   7H    basis set group =>   2


           ************************************************************
           *        Program running with 24 parallel MPI-processes    *
           *              working on a common directory               *
           ************************************************************
------------------------------------------------------------------------------
                             ORCA STARTUP CALCULATIONS
                           -- RI-GTO INTEGRALS CHOSEN --
------------------------------------------------------------------------------
------------------------------------------------------------------------------
                   ___                                                        
                  /   \      - P O W E R E D   B Y -                         
                 /     \                                                     
                 |  |  |   _    _      __       _____    __    __             
                 |  |  |  | |  | |    /  \     |  _  \  |  |  /  |          
                  \  \/   | |  | |   /    \    | | | |  |  | /  /          
                 / \  \   | |__| |  /  /\  \   | |_| |  |  |/  /          
                |  |  |   |  __  | /  /__\  \  |    /   |      \           
                |  |  |   | |  | | |   __   |  |    \   |  |\   \          
                \     /   | |  | | |  |  |  |  | |\  \  |  | \   \       
                 \___/    |_|  |_| |__|  |__|  |_| \__\ |__|  \__/        
                                                                              
                      - O R C A' S   B I G   F R I E N D -                    
                                      &                                       
                       - I N T E G R A L  F E E D E R -                       
                                                                              
 v1 FN, 2020, v2 2021, v3 2022-2024                                           
------------------------------------------------------------------------------


----------------------
SHARK INTEGRAL PACKAGE
----------------------

Number of atoms                             ...      8
Number of basis functions                   ...     48
Number of shells                            ...     28
Maximum angular momentum                    ...      2
Integral batch strategy                     ... SHARK/LIBINT Hybrid
RI-J (if used) integral strategy            ... SPLIT-RIJ (Revised 2003 algorithm where possible)
Printlevel                                  ...      1
Contraction scheme used                     ... SEGMENTED contraction
Prescreening option                         ... SCHWARTZ
   Thresh                                   ... 3.000e-16
   Tcut                                     ... 3.000e-16
   Tpresel                                  ... 3.000e-16 
Coulomb Range Separation                    ... NOT USED
Exchange Range Separation                   ... NOT USED
Multipole approximations                    ... NOT USED
Finite Nucleus Model                        ... NOT USED
CABS basis                                  ... NOT available
Auxiliary Coulomb fitting basis             ... AVAILABLE
   # of basis functions in Aux-J            ...    168
   # of shells in Aux-J                     ...     64
   Maximum angular momentum in Aux-J        ...      4
Auxiliary J/K fitting basis                 ... NOT available
Auxiliary Correlation fitting basis         ... NOT available
Auxiliary 'external' fitting basis          ... NOT available

Checking pre-screening integrals            ... done (  0.0 sec) Dimension = 28
   => SHARK Basis and OBASIS are compatible. Storing Pre-screening
Shell pair information
Shell pair cut-off parameter TPreSel        ...   3.0e-16
Total number of shell pairs                 ...       406
Shell pairs after pre-screening             ...       405
Total number of primitive shell pairs       ...      1894
Primitive shell pairs kept                  ...      1531
          la=0 lb=0:    209 shell pairs
          la=1 lb=0:    120 shell pairs
          la=1 lb=1:     21 shell pairs
          la=2 lb=0:     40 shell pairs
          la=2 lb=1:     12 shell pairs
          la=2 lb=2:      3 shell pairs

Checking whether 4 symmetric matrices of dimension 48 fit in memory
:Max Core in MB      =   4096.00
 MB in use           =      3.77
 MB left             =   4092.23
 MB needed           =      0.04
 Data fit in memory  = YES
Calculating RI/J V-Matrix + Cholesky decomp.... done (  0.0 sec)
Calculating Nuclear repulsion               ... done (  0.0 sec) ENN=     77.564204413714 Eh

Diagonalization of the overlap matrix:
Smallest eigenvalue                        ... 1.664e-02
Time for diagonalization                   ...    0.029 sec
Threshold for overlap eigenvalues          ... 1.000e-07
Number of eigenvalues below threshold      ... 0
Time for construction of square roots      ...    0.001 sec
Total time needed                          ...    0.032 sec

-------------------
DFT GRID GENERATION
-------------------

General Integration Accuracy     IntAcc      ... 4.959
Radial Grid Type                 RadialGrid  ... OptM3 with GC (2021)
Angular Grid (max. ang.)         AngularGrid ... 6 (Lebedev-590)
Angular grid pruning method      GridPruning ... 4 (adaptive)
Weight generation scheme         WeightScheme... mBecke (2022)
Basis function cutoff            BFCut       ... 3.0000e-16
Integration weight cutoff        WCut        ... 1.0000e-14
Partially contracted basis set               ... off
Rotationally invariant grid construction     ... off
Angular grids for H and He will be reduced by one unit

Total number of grid points                  ...    86194
Total number of batches                      ...     1351
Average number of points per batch           ...       63
Average number of grid points per atom       ...    10774

--------------------
COSX GRID GENERATION
--------------------

GRIDX 1
-------
General Integration Accuracy     IntAcc      ... 4.020
Radial Grid Type                 RadialGrid  ... OptM3 with GC (2021)
Angular Grid (max. ang.)         AngularGrid ... 2 (Lebedev-110)
Angular grid pruning method      GridPruning ... 4 (adaptive)
Weight generation scheme         WeightScheme... mBecke (2022)
Basis function cutoff            BFCut       ... 3.0000e-16
Integration weight cutoff        WCut        ... 1.0000e-14
Partially contracted basis set               ... on
Rotationally invariant grid construction     ... off
Angular grids for H and He will be reduced by one unit

Total number of grid points                  ...     8658
Total number of batches                      ...       71
Average number of points per batch           ...      121
Average number of grid points per atom       ...     1082
UseSFitting                                  ... on

GRIDX 2
-------
General Integration Accuracy     IntAcc      ... 4.338
Radial Grid Type                 RadialGrid  ... OptM3 with GC (2021)
Angular Grid (max. ang.)         AngularGrid ... 3 (Lebedev-194)
Angular grid pruning method      GridPruning ... 4 (adaptive)
Weight generation scheme         WeightScheme... mBecke (2022)
Basis function cutoff            BFCut       ... 3.0000e-16
Integration weight cutoff        WCut        ... 1.0000e-14
Partially contracted basis set               ... on
Rotationally invariant grid construction     ... off
Angular grids for H and He will be reduced by one unit

Total number of grid points                  ...    20150
Total number of batches                      ...      162
Average number of points per batch           ...      124
Average number of grid points per atom       ...     2519
UseSFitting                                  ... on

GRIDX 3
-------
General Integration Accuracy     IntAcc      ... 4.871
Radial Grid Type                 RadialGrid  ... OptM3 with GC (2021)
Angular Grid (max. ang.)         AngularGrid ... 4 (Lebedev-302)
Angular grid pruning method      GridPruning ... 4 (adaptive)
Weight generation scheme         WeightScheme... mBecke (2022)
Basis function cutoff            BFCut       ... 3.0000e-16
Integration weight cutoff        WCut        ... 1.0000e-14
Partially contracted basis set               ... on
Rotationally invariant grid construction     ... off
Angular grids for H and He will be reduced by one unit

Total number of grid points                  ...    40580
Total number of batches                      ...      321
Average number of points per batch           ...      126
Average number of grid points per atom       ...     5072
UseSFitting                                  ... on
Grids setup in   3.0 sec
Initializing property integral containers    ... done (  0.0 sec)

SHARK setup successfully completed in   3.3 seconds

Maximum memory used throughout the entire STARTUP-calculation: 19.2 MB


           ************************************************************
           *        Program running with 24 parallel MPI-processes    *
           *              working on a common directory               *
           ************************************************************
-------------------------------------------------------------------------------
                                 ORCA GUESS
                   Start orbitals & Density for SCF / CASSCF
-------------------------------------------------------------------------------

------------
SCF SETTINGS
------------
Hamiltonian:
 Density Functional     Method          .... DFT(GTOs)
 Exchange Functional    Exchange        .... PBE
   PBE kappa parameter   XKappa         ....  1.024500
   PBE mue parameter    XMuePBE         ....  0.123457
 Correlation Functional Correlation     .... PBE
   PBE beta parameter  CBetaPBE         ....  0.030000
 LDA part of GGA corr.  LDAOpt          .... PW91-LDA
 Gradients option       PostSCFGGA      .... off
 Hybrid DFT is turned on
   Fraction HF Exchange ScalHFX         ....  0.420000
   Scaling of DF-GGA-X  ScalDFX         ....  0.580000
   Scaling of DF-GGA-C  ScalDFC         ....  1.000000
   Scaling of DF-LDA-C  ScalLDAC        ....  1.000000
   Perturbative correction              ....  0.000000
 RI-approximation to the Coulomb term is turned on
   Number of AuxJ basis functions       .... 168
   RIJ-COSX (HFX calculated with COS-X)).... on


General Settings:
 Integral files         IntName         .... run
 Hartree-Fock type      HFTyp           .... RHF
 Total Charge           Charge          ....    0
 Multiplicity           Mult            ....    1
 Number of Electrons    NEL             ....   32
 Basis Dimension        Dim             ....   48
 Nuclear Repulsion      ENuc            ....     77.5642044137 Eh

Convergence Acceleration:
 AO-DIIS                CNVDIIS         .... on
   Start iteration      DIISMaxIt       ....    12
   Startup error        DIISStart       ....  0.200000
   # of expansion vecs  DIISMaxEq       ....     5
   Bias factor          DIISBfac        ....   1.050
   Max. coefficient     DIISMaxC        ....  10.000
 MO-DIIS                CNVKDIIS        .... off
 Trust-Rad. Augm. Hess. CNVTRAH         .... auto
   Auto Start mean grad. ratio tolernc. ....  1.125000
   Auto Start start iteration           ....    50
   Auto Start num. interpolation iter.  ....    10
   Max. Number of Micro iterations      ....    24
   Max. Number of Macro iterations      .... Maxiter - #DIIS iter
   Number of Davidson start vectors     ....     2
   Converg. threshold    (grad. norm)   ....   1.000e-09
   Grad. Scal. Fac. for Micro threshold ....   0.100
   Minimum threshold for Micro iter.    ....   1.000e-02
   NR start threshold (gradient norm)   ....   1.000e-04
   Initial trust radius                 ....   0.400
   Minimum AH scaling param. (alpha)    ....   1.000
   Maximum AH scaling param. (alpha)    .... 1000.000
   Quad. conv. algorithm                .... NR
   White noise on init. David. guess    .... on
   Maximum white noise                  ....   0.010
   Pseudo random numbers                .... off
   Inactive MOs                         .... canonical
   Orbital update algorithm             .... Taylor
   Preconditioner                       .... Diag
   Full preconditioner red. dimension   ....   250
 SOSCF                 CNVSOSCF           .... on
   Start iteration     SOSCFMaxIt         ....   150
   Startup grad/error  SOSCFStart         ....  0.003300
   Hessian update      SOSCFHessUp        .... L-BFGS
   Autom. constraints  SOSCFAutoConstrain .... off
 Level Shifting         CNVShift        .... on
   Level shift para.    LevelShift      ....    0.2500
   Turn off err/grad.   ShiftErr        ....    0.0010
 Zerner damping         CNVZerner       .... off
 Static damping         CNVDamp         .... on
   Fraction old density DampFac         ....    0.7000
   Max. Damping (<1)    DampMax         ....    0.9800
   Min. Damping (>=0)   DampMin         ....    0.0000
   Turn off err/grad.   DampErr         ....    0.1000

SCF Procedure:
 Maximum # iterations   MaxIter         ....   125
 SCF integral mode      SCFMode         .... Direct
   Integral package                     .... SHARK and LIBINT hybrid scheme
 Reset frequency        DirectResetFreq ....    20
 Integral Threshold     Thresh          ....  3.000e-16 Eh
 Primitive CutOff       TCut            ....  3.000e-16 Eh

Convergence Tolerance:
 Convergence Check Mode ConvCheckMode   .... All-Criteria
 Convergence forced     ConvForced      .... 0
 Energy Change          TolE            ....  1.000e-14 Eh
 Max Density Change     TolMaxP         ....  1.000e-14
 RMS Density Change     TolRMSP         ....  1.000e-14
 Orbital Gradient       TolG            ....  1.000e-09
 Orbital Rotation angle TolX            ....  1.000e-09
 DIIS Error             TolErr          ....  1.000e-14

--------------------------------
INITIAL GUESS: MINIMAL BASIS EHT
--------------------------------
The minimal basis has 24 functions
EHT matrix was diagonalized
Basis set overlap was calculated now projecting the orbitals
Using GuessMode=FMatrix for the initial guess
C*T matrix was formed
Effective Fockian was calculated
Effective Fockian was diagonalized
Initial density was built
                      ------------------
                      INITIAL GUESS DONE
                      ------------------
             **** ENERGY FILE WAS UPDATED (run.en.tmp) ****
Finished Guess after   0.7 sec
Maximum memory used throughout the entire GUESS-calculation: 5.9 MB


           ************************************************************
           *        Program running with 24 parallel MPI-processes    *
           *              working on a common directory               *
           ************************************************************

-------------------------------------------------------------------------------------------
                                      ORCA LEAN-SCF
                              memory conserving SCF solver
-------------------------------------------------------------------------------------------

----------------------------------------D-I-I-S--------------------------------------------
Iteration    Energy (Eh)           Delta-E    RMSDP     MaxDP     DIISErr   Damp  Time(sec)
-------------------------------------------------------------------------------------------
               ***  Starting incremental Fock matrix formation  ***
    1    -487.0644542502284366     0.00e+00  6.71e-02  9.25e-02  3.38e-01  0.700   0.4
    2    -487.2906879848508197    -2.26e-01  5.64e-02  7.33e-02  2.42e-01  0.700   0.2
                               ***Turning on AO-DIIS***
    3    -487.4481808866777328    -1.57e-01  3.96e-02  4.86e-02  1.68e-01  0.700   0.2
    4    -487.5550368813319437    -1.07e-01  2.83e-02  3.38e-02  1.17e-01  0.700   0.2
    5    -487.6284891627170737    -7.35e-02  2.01e-02  2.35e-02  8.15e-02  0.700   0.2
    6    -487.6793640260805205    -5.09e-02  4.77e-02  5.47e-02  5.68e-02  0.000   0.2
                              *** Initializing SOSCF ***
---------------------------------------S-O-S-C-F--------------------------------------
Iteration    Energy (Eh)           Delta-E    RMSDP     MaxDP     MaxGrad    Time(sec)
--------------------------------------------------------------------------------------
    7    -487.7965155930276069    -1.17e-01  1.01e-03  1.52e-03  6.96e-04     0.3
               *** Restarting incremental Fock matrix formation ***
    8    -487.7965236453180751    -8.05e-06  6.49e-04  1.34e-03  2.66e-04     0.3
    9    -487.7965248374933935    -1.19e-06  1.49e-04  3.06e-04  5.30e-05     0.2
   10    -487.7965248764016906    -3.89e-08  5.02e-06  7.67e-06  2.10e-06     0.2
   11    -487.7965248762426427     1.59e-10  7.55e-07  6.68e-07  4.90e-07     0.2
   12    -487.7965248762722013    -2.96e-11  1.88e-07  4.10e-07  7.29e-08     0.2
   13    -487.7965248762765214    -4.32e-12  3.35e-08  7.86e-08  1.60e-08     0.2
   14    -487.7965248762754982     1.02e-12  2.59e-09  2.80e-09  1.69e-09     0.2
   15    -487.7965248762758392    -3.41e-13  0.00e+00  0.00e+00  9.79e-10     0.2
                           ***RMSP convergence achieved***
                           ***MAXP convergence achieved***
                       ***Gradient convergence achieved***
                    ***Orbital Rotation convergence achieved***
   16    -487.7965248762758392     0.00e+00  0.00e+00  0.00e+00  9.79e-10     0.1
                          ***Energy convergence achieved***

               *****************************************************
               *                     SUCCESS                       *
               *           SCF CONVERGED AFTER  16 CYCLES          *
               *****************************************************

Recomputing exchange energy using gridx3       ... done (    0.206 sec)
Old exchange energy                            :    -16.108247772 Eh
New exchange energy                            :    -16.108234793 Eh
Exchange energy change after final integration :      0.000012980 Eh
Total energy after final integration           :   -487.796511897 Eh
             **** ENERGY FILE WAS UPDATED (run.en.tmp) ****

----------------
TOTAL SCF ENERGY
----------------

Total Energy       :       -487.79651189675496 Eh          -13273.61791 eV

Components:
Nuclear Repulsion  :         77.56420441371391 Eh            2110.62930 eV
Electronic Energy  :       -565.36072928998988 Eh          -15384.24756 eV
One Electron Energy:       -831.55692079593632 Eh          -22627.81419 eV
Two Electron Energy:        266.19619150594650 Eh            7243.56663 eV

Virial components:
Potential Energy   :       -974.51936720082313 Eh          -26518.02013 eV
Kinetic Energy     :        486.72285530406816 Eh           13244.40223 eV
Virial Ratio       :          2.00220588900025

DFT components:
N(Alpha)           :       16.000000722392 electrons
N(Beta)            :       16.000000722392 electrons
N(Total)           :       32.000001444785 electrons
E(X)               :      -21.426258640794 Eh       
E(C)               :       -1.475469248076 Eh       
E(XC)              :      -22.901727888871 Eh       

---------------
SCF CONVERGENCE
---------------

  Last Energy change         ...    0.0000e+00  Tolerance :   1.0000e-14
  Last MAX-Density change    ...    0.0000e+00  Tolerance :   1.0000e-14
  Last RMS-Density change    ...    0.0000e+00  Tolerance :   1.0000e-14
  Last DIIS Error            ...    6.9590e-04  Tolerance :   1.0000e-14
  Last Orbital Gradient      ...    9.7884e-10  Tolerance :   1.0000e-09
  Last Orbital Rotation      ...    0.0000e+00  Tolerance :   1.0000e-09


----------------
ORBITAL ENERGIES
----------------

  NO   OCC          E(Eh)            E(eV) 
   0   2.0000     -56.616770     -1540.6206 
   1   2.0000     -56.616713     -1540.6191 
   2   2.0000      -4.359288      -118.6223 
   3   2.0000      -4.359238      -118.6209 
   4   2.0000      -2.850664       -77.5705 
   5   2.0000      -2.850560       -77.5677 
   6   2.0000      -2.848151       -77.5021 
   7   2.0000      -2.847501       -77.4844 
   8   2.0000      -2.844027       -77.3899 
   9   2.0000      -2.843988       -77.3888 
  10   2.0000      -0.577958       -15.7270 
  11   2.0000      -0.443079       -12.0568 
  12   2.0000      -0.402579       -10.9547 
  13   2.0000      -0.379197       -10.3185 
  14   2.0000      -0.369343       -10.0503 
  15   2.0000      -0.353817        -9.6278 
  16   0.0000      -0.025589        -0.6963 
  17   0.0000       0.045223         1.2306 
  18   0.0000       0.046719         1.2713 
  19   0.0000       0.050863         1.3841 
  20   0.0000       0.056415         1.5351 
  21   0.0000       0.077923         2.1204 
  22   0.0000       0.091444         2.4883 
  23   0.0000       0.156888         4.2691 
  24   0.0000       0.201965         5.4957 
  25   0.0000       0.237671         6.4674 
  26   0.0000       0.261022         7.1028 
*Only the first 10 virtual orbitals were printed.
-------
TIMINGS
-------

Total SCF time: 0 days 0 hours 0 min 4 sec 

Total time                  ....       4.876 sec
Sum of individual times     ....       4.626 sec  ( 94.9%)

SCF preparation             ....       0.680 sec  ( 13.9%)
Fock matrix formation       ....       3.611 sec  ( 74.1%)
  Startup                   ....       0.009 sec  (  0.2% of F)
  Split-RI-J                ....       0.200 sec  (  5.5% of F)
  Chain of spheres X        ....       2.146 sec  ( 59.4% of F)
  XC integration            ....       1.182 sec  ( 32.7% of F)
    XC Preparation          ....       0.000 sec  (  0.0% of XC)
    Basis function eval.    ....       0.229 sec  ( 19.4% of XC)
    Density eval.           ....       0.091 sec  (  7.7% of XC)
    XC-Functional eval.     ....       0.079 sec  (  6.7% of XC)
    XC-Potential eval.      ....       0.082 sec  (  6.9% of XC)
Diagonalization             ....       0.000 sec  (  0.0%)
Density matrix formation    ....       0.050 sec  (  1.0%)
Total Energy calculation    ....       0.036 sec  (  0.7%)
Population analysis         ....       0.000 sec  (  0.0%)
Orbital Transformation      ....       0.016 sec  (  0.3%)
Orbital Orthonormalization  ....       0.000 sec  (  0.0%)
DIIS solution               ....       0.126 sec  (  2.6%)
SOSCF solution              ....       0.107 sec  (  2.2%)
Finished LeanSCF after   4.9 sec

Maximum memory used throughout the entire LEANSCF-calculation: 5.9 MB


           ************************************************************
           *        Program running with 24 parallel MPI-processes    *
           *              working on a common directory               *
           ************************************************************

------------------------------------------------------------------------------
                         ORCA PROPERTY INTEGRAL CALCULATIONS
------------------------------------------------------------------------------

GBWName                                   ... run.gbw
Number of atoms                           ...      8
Number of basis functions                 ...     48
Max core memory                           ...   4096 MB

Dipole integrals                          ... YES
Quadrupole integrals                      ...  NO
Linear momentum integrals                 ...  NO
Angular momentum integrals                ...  NO
Higher moments length integrals           ...  NO
Higher moments velocity integrals         ...  NO
Kinetic energy integrals                  ...  NO
GIAO right hand sides                     ...  NO
GIAO dipole derivative integrals          ...  NO
SOC integrals                             ...  NO
EPR diamagnetic integrals (GIAO)          ...  NO
EPR gauge integrals                       ...  NO
Field gradient integrals                  ...  NO (   0 nuclei)
Spin-dipole/Fermi contact integrals       ...  NO (   0 nuclei)
Contact density integrals                 ...  NO (   0 nuclei)
Nucleus-orbit integrals                   ...  NO (   0 nuclei)
Geometric perturbations                   ...  NO (   8 nuclei)

Choice of electric origin   ... Center of mass
Position of electric origin ... ( -0.0003, -0.0047,  1.9551) 
Choice of magnetic origin   ... GIAO
Position of magnetic origin ... (  0.0000,  0.0000,  0.0000) 

Calculating integrals                     ... Electric Dipole (Length)     done (  0.0 sec)

Property integrals calculated in   0.0 sec

Maximum memory used throughout the entire PROPINT-calculation: 6.1 MB


-------------------------------------------------------------------------------
                          DFT DISPERSION CORRECTION                            
                                                                               
                              DFTD3 V3.1  Rev 1                                
                          USING Becke-Johnson damping                          
-------------------------------------------------------------------------------
The PBEh-3c composite method is recognized
Using three-body term ABC
Active option DFTDOPT                   ...         4   

molecular C6(AA) [au] = 1235.381755 


            DFT-D V3
 parameters
 s6 scaling factor         :     1.0000 
 a1 scaling factor         :     0.4860 
 s8 scaling factor         :     0.0000 
 a2 scaling factor         :     4.5000 
 Damping factor alpha9(ATM):    16.0000 
 ad hoc parameters k1-k3   :    16.0000     1.3333    -4.0000 

 Edisp/kcal,au: -1.343633702434  -0.002141216371 
 E6   /kcal   :  -1.345044391 
 E8   /kcal   :  -0.000000000 
 E6(ABC)      :   0.001410688 
 % E8         :   0.000000000 
 % E6(ABC)    :  -0.104990538 

-------------------------   ----------------
Dispersion correction           -0.002141216
-------------------------   ----------------

------------------   -----------------
gCP correction             0.013541992
------------------   -----------------

-------------------------   --------------------
FINAL SINGLE POINT ENERGY      -487.785111121026
-------------------------   --------------------



           ************************************************************
           *        Program running with 24 parallel MPI-processes    *
           *              working on a common directory               *
           ************************************************************
------------------------------------------------------------------------------
                         ORCA SCF GRADIENT CALCULATION
------------------------------------------------------------------------------

Nuc. rep. gradient        (SHARK) ... done (  0.0 sec)
HCore & Overlap gradient  (SHARK) ... done (  0.0 sec)
Split-RIJ-J gradient      (SHARK) ... done (  0.3 sec)
done (  0.9 sec)
XC gradient                       ... done (  0.3 sec)
Dispersion correction             ... done (  0.1 sec)

-------------------
DISPERSION GRADIENT
-------------------

   1   Al  :    0.000000011    0.000000010    0.000066742
   2   Al  :   -0.000000009    0.000000038   -0.000066742
   3   H   :    0.000031284   -0.000001260   -0.000000005
   4   H   :   -0.000001532   -0.000034139   -0.000051431
   5   H   :   -0.000031272    0.000001531    0.000000005
   6   H   :    0.000001526    0.000033980    0.000051479
   7   H   :   -0.000001517   -0.000034161    0.000051417
   8   H   :    0.000001509    0.000034002   -0.000051466

Difference to translation invariance:
           :    0.0000000000    0.0000000000   -0.0000000000

Difference to rotation invariance:
           :    0.0000000000   -0.0000000000    0.0000000000

Norm of the Dispersion gradient    ...    0.0001615853
RMS gradient                       ...    0.0000329835
MAX gradient                       ...    0.0000667419
gCP correction                   ... done

------------------
CARTESIAN GRADIENT
------------------

   1   Al  :    0.000001551    0.000036251   -0.000532295
   2   Al  :    0.000001624    0.000035708    0.000532307
   3   H   :    0.003848455   -0.000167442   -0.000000621
   4   H   :   -0.000177408   -0.003987301   -0.002029881
   5   H   :   -0.003848003    0.000180457    0.000000663
   6   H   :    0.000176247    0.003944754    0.002114240
   7   H   :   -0.000177490   -0.003988180    0.002028187
   8   H   :    0.000175023    0.003945752   -0.002112602

Difference to translation invariance:
           :    0.0000000000    0.0000000000   -0.0000000000

Difference to rotation invariance:
           :    0.0000000705    0.0000000080   -0.0000041064

Norm of the Cartesian gradient     ...    0.0105106393
RMS gradient                       ...    0.0021454753
MAX gradient                       ...    0.0039881795

-------
TIMINGS
-------

Total SCF gradient time     ....        1.614 sec

Densities                   ....       0.000 sec  (  0.0%)
One electron gradient       ....       0.026 sec  (  1.6%)
RI-J Coulomb gradient       ....       0.263 sec  ( 16.3%)
COSX gradient               ....       0.880 sec  ( 54.5%)
XC gradient                 ....       0.282 sec  ( 17.5%)

Maximum memory used throughout the entire SCFGRAD-calculation: 25.8 MB
------------------------------------------------------------------------------
                         ORCA GEOMETRY RELAXATION STEP
------------------------------------------------------------------------------

Reading the OPT-File                    .... done
Getting information on internals        .... done
Copying old internal coords+grads       .... done
Making the new internal coordinates     .... (2022 redundants) done
Validating the new internal coordinates .... (2022 redundants) done
Calculating the B-matrix                .... done
Calculating the G,G- and P matrices     .... done
Transforming gradient to internals      .... done
Projecting the internal gradient        .... done
Number of atoms                         ....   8
Number of internal coordinates          ....  51
Current Energy                          ....  -487.785111121 Eh
Current gradient norm                   ....     0.010510639 Eh/bohr
Maximum allowed component of the step   ....  0.300
Current trust radius                    ....  0.300
Evaluating the initial hessian          ....  (Almloef) done
Projecting the Hessian                  .... done
Forming the augmented Hessian           .... done
Diagonalizing the augmented Hessian     .... done
Last element of RFO vector              ....  0.999561648
Lowest eigenvalues of augmented Hessian:
 -0.000293622  0.031001760  0.052197494  0.082473597  0.103135869
Length of the computed step             ....  0.029618911
The final length of the internal step   ....  0.029618911
Converting the step to Cartesian space:
 Initial RMS(Int)=    0.0041474772
Transforming coordinates:
 Iter   0:  RMS(Cart)=    0.0059892802 RMS(Int)=    0.0041474745
done
Storing new coordinates                 .... done

                                .--------------------.
          ----------------------|Geometry convergence|-------------------------
          Item                value                   Tolerance       Converged
          ---------------------------------------------------------------------
          RMS gradient        0.0014278408            0.0000080000      NO
          MAX gradient        0.0044764262            0.0000300000      NO
          RMS step            0.0041474772            0.0001000000      NO
          MAX step            0.0109920380            0.0002000000      NO
          -------------------------------------------------------------------------
          ........................................................
          Max(Bonds)      0.0058      Max(Angles)    0.19
          Max(Dihed)        0.06      Max(Improp)    0.00
          ---------------------------------------------------------------------

The optimization has not yet converged - more geometry cycles are needed


    ---------------------------------------------------------------------------
                         Redundant Internal Coordinates
                            (Angstroem and degrees)

        Definition                    Value    dE/dq     Step     New-Value
    ----------------------------------------------------------------------------
     1. B(Al  1,Al  0)                2.6134  0.001341 -0.0029    2.6105   
     2. B(H   2,Al  0)                1.7504  0.002129 -0.0046    1.7458   
     3. B(H   2,Al  1)                1.7504  0.002129 -0.0046    1.7458   
     4. B(H   3,Al  1)                1.5867  0.004476 -0.0058    1.5809   
     5. B(H   4,Al  1)                1.7504  0.002129 -0.0046    1.7458   
     6. B(H   4,Al  0)                1.7504  0.002129 -0.0046    1.7458   
     7. B(H   5,Al  0)                1.5867  0.004476 -0.0058    1.5808   
     8. B(H   6,Al  0)                1.5867  0.004476 -0.0058    1.5809   
     9. B(H   7,Al  1)                1.5867  0.004476 -0.0058    1.5808   
    10. A(H   2,Al  0,H   5)          109.01 -0.000056    0.01    109.02   
    11. A(Al  1,Al  0,H   5)          116.06  0.000103   -0.03    116.03   
    12. A(H   4,Al  0,H   6)          108.90 -0.000092    0.01    108.91   
    13. A(H   4,Al  0,H   5)          109.01 -0.000056    0.01    109.02   
    14. A(Al  1,Al  0,H   4)           41.71  0.000417   -0.10     41.62   
    15. A(H   2,Al  0,H   4)           83.42  0.000835   -0.19     83.23   
    16. A(Al  1,Al  0,H   2)           41.71  0.000417   -0.10     41.62   
    17. A(H   5,Al  0,H   6)          128.41 -0.000152    0.05    128.46   
    18. A(H   2,Al  0,H   6)          108.90 -0.000091    0.01    108.92   
    19. A(Al  1,Al  0,H   6)          115.53  0.000050   -0.02    115.51   
    20. A(H   4,Al  1,H   7)          109.01 -0.000057    0.01    109.02   
    21. A(H   2,Al  1,H   3)          108.90 -0.000092    0.01    108.92   
    22. A(H   3,Al  1,H   4)          108.90 -0.000091    0.01    108.92   
    23. A(Al  0,Al  1,H   2)           41.71  0.000417   -0.10     41.62   
    24. A(H   2,Al  1,H   4)           83.42  0.000835   -0.19     83.23   
    25. A(Al  0,Al  1,H   4)           41.71  0.000417   -0.10     41.62   
    26. A(Al  0,Al  1,H   3)          115.53  0.000050   -0.02    115.51   
    27. A(Al  0,Al  1,H   7)          116.06  0.000103   -0.03    116.03   
    28. A(H   2,Al  1,H   7)          109.01 -0.000055    0.01    109.02   
    29. A(H   3,Al  1,H   7)          128.41 -0.000152    0.05    128.46   
    30. A(Al  0,H   2,Al  1)           96.58 -0.000835    0.19     96.77   
    31. A(Al  0,H   4,Al  1)           96.58 -0.000835    0.19     96.77   
    32. D(H   4,Al  1,Al  0,H   2)   -179.58 -0.000004   -0.01   -179.59   
    33. D(H   3,Al  1,Al  0,H   4)    -90.21  0.000002    0.01    -90.20   
    34. D(H   3,Al  1,Al  0,H   2)     90.21 -0.000003   -0.01     90.21   
    35. D(H   2,Al  1,Al  0,H   6)    -90.21  0.000002    0.01    -90.21   
    36. D(H   3,Al  1,Al  0,H   5)    180.00 -0.000001    0.00    180.00   
    37. D(H   3,Al  1,Al  0,H   6)     -0.00 -0.000001    0.00     -0.00   
    38. D(H   2,Al  1,Al  0,H   5)     89.79  0.000002    0.01     89.79   
    39. D(H   2,Al  1,Al  0,H   4)    179.58  0.000004    0.01    179.59   
    40. D(Al  0,H   2,Al  1,H   7)    108.17  0.000211   -0.06    108.11   
    41. D(Al  0,H   2,Al  1,H   4)      0.28 -0.000001   -0.01      0.27   
    42. D(Al  0,H   2,Al  1,H   3)   -107.49 -0.000175    0.04   -107.45   
    43. D(Al  1,H   2,Al  0,H   6)    107.49  0.000175   -0.04    107.45   
    44. D(Al  1,H   2,Al  0,H   5)   -108.17 -0.000212    0.06   -108.11   
    45. D(Al  1,H   2,Al  0,H   4)     -0.28  0.000001    0.01     -0.27   
    46. D(Al  1,H   4,Al  0,H   2)      0.28 -0.000001   -0.01      0.27   
    47. D(Al  0,H   4,Al  1,H   7)   -108.17 -0.000213    0.06   -108.11   
    48. D(Al  0,H   4,Al  1,H   3)    107.49  0.000174   -0.04    107.45   
    49. D(Al  0,H   4,Al  1,H   2)     -0.28  0.000001    0.01     -0.27   
    50. D(Al  1,H   4,Al  0,H   6)   -107.49 -0.000175    0.04   -107.45   
    51. D(Al  1,H   4,Al  0,H   5)    108.17  0.000212   -0.06    108.11   
    ----------------------------------------------------------------------------

Geometry step timings:
Preparation and reading OPT file:      0.000 s ( 0.651 %)
Internal coordinates            :      0.000 s ( 0.515 %)
B/P matrices and projection     :      0.001 s ( 7.093 %)
Hessian update/contruction      :      0.000 s ( 4.584 %)
Making the step                 :      0.006 s (76.550 %)
Converting the step to Cartesian:      0.000 s ( 2.089 %)
Storing new data                :      0.000 s ( 0.922 %)
Checking convergence            :      0.000 s ( 0.637 %)
Final printing                  :      0.001 s ( 6.917 %)
Total time                      :      0.007 s

Time for energy+gradient        :     14.441 s
Time for complete geometry iter :     15.223 s

         *************************************************************
         *                GEOMETRY OPTIMIZATION CYCLE   2            *
         *************************************************************
---------------------------------
CARTESIAN COORDINATES (ANGSTROEM)
---------------------------------
  Al     0.000063   -0.002720    2.339835
  Al    -0.000327   -0.002178   -0.270633
  H      1.158355   -0.049987    1.034419
  H     -0.064035   -1.427336   -0.951866
  H     -1.158250    0.053384    1.034786
  H      0.063536    1.416237    3.033812
  H     -0.063484   -1.428163    3.020490
  H      0.062901    1.417072   -0.964033

----------------------------
CARTESIAN COORDINATES (A.U.)
----------------------------
  NO LB      ZA    FRAG     MASS         X           Y           Z
   0 Al   13.0000    0    26.982    0.000120   -0.005141    4.421648
   1 Al   13.0000    0    26.982   -0.000617   -0.004115   -0.511421
   2 H     1.0000    0     1.008    2.188975   -0.094462    1.954768
   3 H     1.0000    0     1.008   -0.121009   -2.697274   -1.798766
   4 H     1.0000    0     1.008   -2.188775    0.100881    1.955462
   5 H     1.0000    0     1.008    0.120065    2.676300    5.733074
   6 H     1.0000    0     1.008   -0.119968   -2.698836    5.707898
   7 H     1.0000    0     1.008    0.118866    2.677879   -1.821759

--------------------------------
INTERNAL COORDINATES (ANGSTROEM)
--------------------------------
 Al     0   0   0     0.000000000000     0.00000000     0.00000000
 Al     1   0   0     2.610468074911     0.00000000     0.00000000
 H      1   2   0     1.745848688294    41.61524785     0.00000000
 H      2   1   3     1.580890133566   115.51428549    90.20544839
 H      2   1   3     1.745849466960    41.61526790   180.41030360
 H      1   2   3     1.580845478312   116.02799575    89.79300116
 H      1   2   3     1.580890271945   115.51407265   269.79286058
 H      2   1   3     1.580845710031   116.02780121   270.20547851

---------------------------
INTERNAL COORDINATES (A.U.)
---------------------------
 Al     0   0   0     0.000000000000     0.00000000     0.00000000
 Al     1   0   0     4.933069742927     0.00000000     0.00000000
 H      1   2   0     3.299175892141    41.61524785     0.00000000
 H      2   1   3     2.987449400257   115.51428549    90.20544839
 H      2   1   3     3.299177363608    41.61526790   180.41030360
 H      1   2   3     2.987365014058   116.02799575    89.79300116
 H      1   2   3     2.987449661756   115.51407265   269.79286058
 H      2   1   3     2.987365451943   116.02780121   270.20547851



           ************************************************************
           *        Program running with 24 parallel MPI-processes    *
           *              working on a common directory               *
           ************************************************************
------------------------------------------------------------------------------
                   ___                                                        
                  /   \      - P O W E R E D   B Y -                         
                 /     \                                                     
                 |  |  |   _    _      __       _____    __    __             
                 |  |  |  | |  | |    /  \     |  _  \  |  |  /  |          
                  \  \/   | |  | |   /    \    | | | |  |  | /  /          
                 / \  \   | |__| |  /  /\  \   | |_| |  |  |/  /          
                |  |  |   |  __  | /  /__\  \  |    /   |      \           
                |  |  |   | |  | | |   __   |  |    \   |  |\   \          
                \     /   | |  | | |  |  |  |  | |\  \  |  | \   \       
                 \___/    |_|  |_| |__|  |__|  |_| \__\ |__|  \__/        
                                                                              
                      - O R C A' S   B I G   F R I E N D -                    
                                      &                                       
                       - I N T E G R A L  F E E D E R -                       
                                                                              
 v1 FN, 2020, v2 2021, v3 2022-2024                                           
------------------------------------------------------------------------------


----------------------
SHARK INTEGRAL PACKAGE
----------------------

Number of atoms                             ...      8
Number of basis functions                   ...     48
Number of shells                            ...     28
Maximum angular momentum                    ...      2
Integral batch strategy                     ... SHARK/LIBINT Hybrid
RI-J (if used) integral strategy            ... SPLIT-RIJ (Revised 2003 algorithm where possible)
Printlevel                                  ...      1
Contraction scheme used                     ... SEGMENTED contraction
Prescreening option                         ... SCHWARTZ
   Thresh                                   ... 3.000e-16
   Tcut                                     ... 3.000e-16
   Tpresel                                  ... 3.000e-16 
Coulomb Range Separation                    ... NOT USED
Exchange Range Separation                   ... NOT USED
Multipole approximations                    ... NOT USED
Finite Nucleus Model                        ... NOT USED
CABS basis                                  ... NOT available
Auxiliary Coulomb fitting basis             ... AVAILABLE
   # of basis functions in Aux-J            ...    168
   # of shells in Aux-J                     ...     64
   Maximum angular momentum in Aux-J        ...      4
Auxiliary J/K fitting basis                 ... NOT available
Auxiliary Correlation fitting basis         ... NOT available
Auxiliary 'external' fitting basis          ... NOT available

Checking pre-screening integrals            ... done (  0.0 sec) Dimension = 28
   => SHARK Basis and OBASIS are compatible. Storing Pre-screening
Shell pair information
Shell pair cut-off parameter TPreSel        ...   3.0e-16
Total number of shell pairs                 ...       406
Shell pairs after pre-screening             ...       405
Total number of primitive shell pairs       ...      1894
Primitive shell pairs kept                  ...      1531
          la=0 lb=0:    209 shell pairs
          la=1 lb=0:    120 shell pairs
          la=1 lb=1:     21 shell pairs
          la=2 lb=0:     40 shell pairs
          la=2 lb=1:     12 shell pairs
          la=2 lb=2:      3 shell pairs

Checking whether 4 symmetric matrices of dimension 48 fit in memory
:Max Core in MB      =   4096.00
 MB in use           =      3.79
 MB left             =   4092.21
 MB needed           =      0.04
 Data fit in memory  = YES
Calculating RI/J V-Matrix + Cholesky decomp.... done (  0.0 sec)
Calculating Nuclear repulsion               ... done (  0.0 sec) ENN=     77.731325043671 Eh

Diagonalization of the overlap matrix:
Smallest eigenvalue                        ... 1.657e-02
Time for diagonalization                   ...    0.001 sec
Threshold for overlap eigenvalues          ... 1.000e-07
Number of eigenvalues below threshold      ... 0
Time for construction of square roots      ...    0.000 sec
Total time needed                          ...    0.009 sec

-------------------
DFT GRID GENERATION
-------------------

General Integration Accuracy     IntAcc      ... 4.959
Radial Grid Type                 RadialGrid  ... OptM3 with GC (2021)
Angular Grid (max. ang.)         AngularGrid ... 6 (Lebedev-590)
Angular grid pruning method      GridPruning ... 4 (adaptive)
Weight generation scheme         WeightScheme... mBecke (2022)
Basis function cutoff            BFCut       ... 3.0000e-16
Integration weight cutoff        WCut        ... 1.0000e-14
Partially contracted basis set               ... off
Rotationally invariant grid construction     ... off
Angular grids for H and He will be reduced by one unit

Total number of grid points                  ...    86185
Total number of batches                      ...     1351
Average number of points per batch           ...       63
Average number of grid points per atom       ...    10773

--------------------
COSX GRID GENERATION
--------------------

GRIDX 1
-------
General Integration Accuracy     IntAcc      ... 4.020
Radial Grid Type                 RadialGrid  ... OptM3 with GC (2021)
Angular Grid (max. ang.)         AngularGrid ... 2 (Lebedev-110)
Angular grid pruning method      GridPruning ... 4 (adaptive)
Weight generation scheme         WeightScheme... mBecke (2022)
Basis function cutoff            BFCut       ... 3.0000e-16
Integration weight cutoff        WCut        ... 1.0000e-14
Partially contracted basis set               ... on
Rotationally invariant grid construction     ... off
Angular grids for H and He will be reduced by one unit

Total number of grid points                  ...     8656
Total number of batches                      ...       71
Average number of points per batch           ...      121
Average number of grid points per atom       ...     1082
UseSFitting                                  ... on

GRIDX 2
-------
General Integration Accuracy     IntAcc      ... 4.338
Radial Grid Type                 RadialGrid  ... OptM3 with GC (2021)
Angular Grid (max. ang.)         AngularGrid ... 3 (Lebedev-194)
Angular grid pruning method      GridPruning ... 4 (adaptive)
Weight generation scheme         WeightScheme... mBecke (2022)
Basis function cutoff            BFCut       ... 3.0000e-16
Integration weight cutoff        WCut        ... 1.0000e-14
Partially contracted basis set               ... on
Rotationally invariant grid construction     ... off
Angular grids for H and He will be reduced by one unit

Total number of grid points                  ...    20150
Total number of batches                      ...      162
Average number of points per batch           ...      124
Average number of grid points per atom       ...     2519
UseSFitting                                  ... on

GRIDX 3
-------
General Integration Accuracy     IntAcc      ... 4.871
Radial Grid Type                 RadialGrid  ... OptM3 with GC (2021)
Angular Grid (max. ang.)         AngularGrid ... 4 (Lebedev-302)
Angular grid pruning method      GridPruning ... 4 (adaptive)
Weight generation scheme         WeightScheme... mBecke (2022)
Basis function cutoff            BFCut       ... 3.0000e-16
Integration weight cutoff        WCut        ... 1.0000e-14
Partially contracted basis set               ... on
Rotationally invariant grid construction     ... off
Angular grids for H and He will be reduced by one unit

Total number of grid points                  ...    40575
Total number of batches                      ...      321
Average number of points per batch           ...      126
Average number of grid points per atom       ...     5072
UseSFitting                                  ... on
Grids setup in   2.8 sec
Initializing property integral containers    ... done (  0.0 sec)

SHARK setup successfully completed in   3.0 seconds

Maximum memory used throughout the entire STARTUP-calculation: 19.3 MB


           ************************************************************
           *        Program running with 24 parallel MPI-processes    *
           *              working on a common directory               *
           ************************************************************
Occupation numbers will be reassigned to an Aufbau configuration
             **** ENERGY FILE WAS UPDATED (run.en.tmp) ****
Finished Guess after   0.6 sec
Maximum memory used throughout the entire GUESS-calculation: 6.0 MB


           ************************************************************
           *        Program running with 24 parallel MPI-processes    *
           *              working on a common directory               *
           ************************************************************
----------------------------------------D-I-I-S--------------------------------------------
Iteration    Energy (Eh)           Delta-E    RMSDP     MaxDP     DIISErr   Damp  Time(sec)
-------------------------------------------------------------------------------------------
               ***  Starting incremental Fock matrix formation  ***
                              *** Initializing SOSCF ***
---------------------------------------S-O-S-C-F--------------------------------------
Iteration    Energy (Eh)           Delta-E    RMSDP     MaxDP     MaxGrad    Time(sec)
--------------------------------------------------------------------------------------
    1    -487.7967053342105714     0.00e+00  8.38e-04  9.44e-04  1.36e-04     0.3
               *** Restarting incremental Fock matrix formation ***
    2    -487.7967123117876440    -6.98e-06  2.41e-04  3.55e-04  1.33e-04     0.3
    3    -487.7967126450626552    -3.33e-07  3.74e-05  7.86e-05  1.86e-05     0.3
    4    -487.7967126503671693    -5.30e-09  3.27e-06  3.74e-06  2.19e-06     0.2
    5    -487.7967126506181899    -2.51e-10  7.73e-07  1.78e-06  4.35e-07     0.2
    6    -487.7967126506028421     1.53e-11  1.09e-07  1.81e-07  7.56e-08     0.2
    7    -487.7967126505978399     5.00e-12  1.57e-08  1.59e-08  1.48e-08     0.2
    8    -487.7967126505989768    -1.14e-12  1.56e-09  1.11e-09  1.21e-09     0.2
    9    -487.7967126505992042    -2.27e-13  1.34e-09  1.16e-09  1.06e-09     0.2
   10    -487.7967126505990905     1.14e-13  0.00e+00  0.00e+00  9.99e-10     0.2
                           ***RMSP convergence achieved***
                           ***MAXP convergence achieved***
                       ***Gradient convergence achieved***
                    ***Orbital Rotation convergence achieved***
   11    -487.7967126505990905     0.00e+00  0.00e+00  0.00e+00  9.99e-10     0.2
                          ***Energy convergence achieved***

               *****************************************************
               *                     SUCCESS                       *
               *           SCF CONVERGED AFTER  11 CYCLES          *
               *****************************************************

Recomputing exchange energy using gridx3       ... done (    0.253 sec)
Old exchange energy                            :    -16.111298070 Eh
New exchange energy                            :    -16.111285221 Eh
Exchange energy change after final integration :      0.000012849 Eh
Total energy after final integration           :   -487.796699802 Eh
             **** ENERGY FILE WAS UPDATED (run.en.tmp) ****

----------------
TOTAL SCF ENERGY
----------------

Total Energy       :       -487.79669980167904 Eh          -13273.62302 eV

Components:
Nuclear Repulsion  :         77.73132504367102 Eh            2115.17689 eV
Electronic Energy  :       -565.52803769427010 Eh          -15388.80026 eV
One Electron Energy:       -831.90499228538056 Eh          -22637.28570 eV
Two Electron Energy:        266.37695459111040 Eh            7248.48544 eV

Virial components:
Potential Energy   :       -974.54702420813021 Eh          -26518.77272 eV
Kinetic Energy     :        486.75032440645117 Eh           13245.14970 eV
Virial Ratio       :          2.00214971689337

DFT components:
N(Alpha)           :       16.000000721356 electrons
N(Beta)            :       16.000000721356 electrons
N(Total)           :       32.000001442711 electrons
E(X)               :      -21.430037141763 Eh       
E(C)               :       -1.475879263339 Eh       
E(XC)              :      -22.905916405102 Eh       

---------------
SCF CONVERGENCE
---------------

  Last Energy change         ...    0.0000e+00  Tolerance :   1.0000e-14
  Last MAX-Density change    ...    0.0000e+00  Tolerance :   1.0000e-14
  Last RMS-Density change    ...    0.0000e+00  Tolerance :   1.0000e-14
  Last DIIS Error            ...    9.7273e-04  Tolerance :   1.0000e-14
  Last Orbital Gradient      ...    9.9904e-10  Tolerance :   1.0000e-09
  Last Orbital Rotation      ...    0.0000e+00  Tolerance :   1.0000e-09


Total SCF time: 0 days 0 hours 0 min 3 sec 
Finished LeanSCF after   3.7 sec

Maximum memory used throughout the entire LEANSCF-calculation: 6.0 MB


           ************************************************************
           *        Program running with 24 parallel MPI-processes    *
           *              working on a common directory               *
           ************************************************************

------------------------------------------------------------------------------
                         ORCA PROPERTY INTEGRAL CALCULATIONS
------------------------------------------------------------------------------

GBWName                                   ... run.gbw
Number of atoms                           ...      8
Number of basis functions                 ...     48
Max core memory                           ...   4096 MB

Dipole integrals                          ... YES
Quadrupole integrals                      ...  NO
Linear momentum integrals                 ...  NO
Angular momentum integrals                ...  NO
Higher moments length integrals           ...  NO
Higher moments velocity integrals         ...  NO
Kinetic energy integrals                  ...  NO
GIAO right hand sides                     ...  NO
GIAO dipole derivative integrals          ...  NO
SOC integrals                             ...  NO
EPR diamagnetic integrals (GIAO)          ...  NO
EPR gauge integrals                       ...  NO
Field gradient integrals                  ...  NO (   0 nuclei)
Spin-dipole/Fermi contact integrals       ...  NO (   0 nuclei)
Contact density integrals                 ...  NO (   0 nuclei)
Nucleus-orbit integrals                   ...  NO (   0 nuclei)
Geometric perturbations                   ...  NO (   8 nuclei)

Choice of electric origin   ... Center of mass
Position of electric origin ... ( -0.0003, -0.0048,  1.9551) 
Choice of magnetic origin   ... GIAO
Position of magnetic origin ... (  0.0000,  0.0000,  0.0000) 

Calculating integrals                     ... Electric Dipole (Length)     done (  0.0 sec)

Property integrals calculated in   0.0 sec

Maximum memory used throughout the entire PROPINT-calculation: 6.1 MB


-------------------------------------------------------------------------------
                          DFT DISPERSION CORRECTION                            
                                                                               
                              DFTD3 V3.1  Rev 1                                
                          USING Becke-Johnson damping                          
-------------------------------------------------------------------------------
-------------------------   ----------------
Dispersion correction           -0.002145260
-------------------------   ----------------

------------------   -----------------
gCP correction             0.013487201
------------------   -----------------

-------------------------   --------------------
[...]
     13       0.296574   0.006054  -0.000001  -0.000001   0.000027   0.005672
     14       0.000060   0.000021  -0.000002   0.000024  -0.130018   0.000020
     15      -0.008597   0.000883   0.499510  -0.007565  -0.489143   0.490781
     16      -0.194591   0.021324  -0.022311  -0.173787   0.021800  -0.021904
     17       0.409863  -0.414762  -0.000068   0.466978   0.000193  -0.000102
     18      -0.008722  -0.001007  -0.499494  -0.007706  -0.489165   0.490776
     19      -0.194418  -0.021137   0.022311  -0.173591   0.021801  -0.021905
     20      -0.409946  -0.414742   0.000093  -0.467052  -0.000038  -0.000055
     21      -0.008722   0.001004  -0.499510   0.007704   0.489143   0.490781
     22      -0.194420   0.021151   0.022312   0.173592  -0.021801  -0.021905
     23      -0.409941   0.414770   0.000092   0.467047   0.000037  -0.000054
                 12         13         14         15         16         17    
      0       0.000005  -0.000006   0.000000   0.001299  -0.030930  -0.010339
      1      -0.000007   0.000008  -0.000000   0.029123   0.001380   0.000461
      2       0.033689  -0.037901   0.000026   0.000005   0.000005   0.000002
      3       0.000005   0.000006   0.000001   0.001299  -0.030930   0.010339
      4      -0.000007  -0.000008  -0.000000   0.029123   0.001380  -0.000461
      5       0.033689   0.037901  -0.000026   0.000006   0.000005  -0.000002
      6      -0.000000   0.019812   0.027334  -0.028606   0.699897  -0.000101
      7       0.000003  -0.000419   0.613273  -0.641560  -0.031205   0.000144
      8      -0.005636  -0.000003   0.000124  -0.000130  -0.000112  -0.690146
      9       0.009786   0.009951  -0.247908  -0.003050   0.064015   0.108499
     10       0.220439   0.228591   0.010909  -0.069037  -0.002862  -0.004839
     11      -0.448024  -0.443546   0.000351   0.196441  -0.000012  -0.000022
     12      -0.000001  -0.019812  -0.027345  -0.028617   0.699896   0.000101
     13      -0.000001   0.000427  -0.613270  -0.641562  -0.031221  -0.000144
     14      -0.005636   0.000003  -0.000124  -0.000129  -0.000112   0.690146
     15       0.009787  -0.009951   0.247899  -0.003049   0.064014  -0.108501
     16       0.220443  -0.228594  -0.010909  -0.069041  -0.002862   0.004839
     17      -0.448025   0.443543  -0.000348   0.196445  -0.000012   0.000022
     18      -0.009922   0.010083  -0.247907  -0.003108   0.064015  -0.108499
     19      -0.220252   0.228406   0.010910  -0.068955  -0.002862   0.004839
     20      -0.448113   0.443639  -0.000269  -0.196468  -0.000008   0.000012
     21      -0.009921  -0.010084   0.247900  -0.003107   0.064014   0.108501
     22      -0.220256  -0.228408  -0.010909  -0.068959  -0.002862  -0.004839
     23      -0.448115  -0.443635   0.000272  -0.196472  -0.000008  -0.000012
                 18         19         20         21         22         23    
      0      -0.000004   0.000001   0.000002  -0.000002  -0.001470   0.001491
      1       0.000005  -0.000002  -0.000003   0.000003  -0.032921   0.033391
      2      -0.025305   0.009765   0.013865  -0.016104  -0.000007   0.000007
      3      -0.000004  -0.000001   0.000002   0.000002   0.001470   0.001491
      4       0.000005   0.000002  -0.000003  -0.000004   0.032920   0.033391
      5      -0.025305  -0.009765   0.013865   0.016104   0.000007   0.000007
      6       0.000106   0.706239   0.000007  -0.004484  -0.000000   0.000156
      7      -0.000147  -0.031491  -0.000010   0.000199   0.000000   0.003590
      8       0.704860  -0.000110   0.047317   0.000001  -0.000004   0.000001
      9       0.001466  -0.000368  -0.020229  -0.020173  -0.020008  -0.020070
     10       0.032780  -0.008322  -0.452279  -0.451009  -0.447270  -0.448659
     11      -0.013739   0.000322  -0.209318  -0.214573  -0.221376  -0.218502
     12       0.000107  -0.706239   0.000007   0.004484   0.000000   0.000157
     13      -0.000147   0.031503  -0.000010  -0.000199   0.000000   0.003590
     14       0.704861   0.000110   0.047317  -0.000001   0.000003   0.000001
     15       0.001466   0.000368  -0.020229   0.020173   0.020007  -0.020069
     16       0.032782   0.008321  -0.452287   0.451014   0.447265  -0.448646
     17      -0.013739  -0.000323  -0.209326   0.214579   0.221376  -0.218499
     18      -0.001470  -0.000368   0.020167  -0.020108   0.019942  -0.020004
     19      -0.032774  -0.008322   0.452368  -0.451094   0.447367  -0.448749
     20      -0.013752  -0.000326  -0.209136   0.214389  -0.221197   0.218320
     21      -0.001470   0.000368   0.020167   0.020109  -0.019942  -0.020004
     22      -0.032776   0.008321   0.452371   0.451104  -0.447356  -0.448741
     23      -0.013752   0.000327  -0.209141  -0.214397   0.221195   0.218320


-----------
IR SPECTRUM
-----------

 Mode   freq       eps      Int      T**2         TX        TY        TZ
       cm**-1   L/(mol*cm) km/mol    a.u.
----------------------------------------------------------------------------
  6:    203.61   0.002594   13.11  0.003976  ( 0.002799  0.062996  0.000013)
  7:    380.30   0.000000    0.00  0.000000  (-0.000000 -0.000001 -0.000000)
  8:    425.40   0.000000    0.00  0.000000  (-0.000000  0.000000 -0.000008)
  9:    470.03   0.000000    0.00  0.000000  ( 0.000000  0.000000  0.000001)
 10:    491.48   0.000000    0.00  0.000000  ( 0.000000  0.000000  0.000000)
 11:    640.56   0.053704  271.40  0.026163  (-0.161589  0.007217  0.000026)
 12:    711.81   0.124089  627.10  0.054402  ( 0.000035 -0.000049  0.233242)
 13:    756.97   0.000000    0.00  0.000000  (-0.000000 -0.000000 -0.000000)
 14:    771.16   0.000000    0.00  0.000000  ( 0.000003 -0.000000 -0.000001)
 15:    867.40   0.050045  252.91  0.018005  ( 0.005976  0.134048  0.000027)
 16:   1323.61   0.077681  392.57  0.018315  (-0.135197  0.006034  0.000022)
 17:   1436.26   0.000000    0.00  0.000000  ( 0.000000 -0.000000  0.000000)
 18:   1515.72   0.227589  1150.14  0.046857  (-0.000032  0.000045 -0.216465)
 19:   1564.39   0.000000    0.00  0.000000  (-0.000000 -0.000000 -0.000000)
 20:   2010.16   0.022772  115.08  0.003535  ( 0.000009 -0.000012  0.059458)
 21:   2017.09   0.000000    0.00  0.000000  (-0.000000 -0.000001  0.000000)
 22:   2028.32   0.000000    0.00  0.000000  ( 0.000000 -0.000000  0.000000)
 23:   2034.80   0.080101  404.80  0.012284  ( 0.004946  0.110725  0.000022)

* The epsilon (eps) is given for a Dirac delta lineshape.
** The dipole moment derivative (T) already includes vibrational overlap.

--------------
RAMAN SPECTRUM  
--------------

 Mode    freq (cm**-1)   Activity   Depolarization
-------------------------------------------------------------------
   6:       203.61      0.000000      0.423539
   7:       380.30     11.507851      0.293817
   8:       425.40      0.000000      0.740396
   9:       470.03     10.139493      0.750000
  10:       491.48      3.162426      0.750000
  11:       640.56      0.000000      0.744771
  12:       711.81      0.000000      0.749677
  13:       756.97     17.502369      0.740240
  14:       771.16     27.441647      0.750000
  15:       867.40      0.000000      0.141885
  16:      1323.61      0.000000      0.749738
  17:      1436.26      8.687577      0.750000
  18:      1515.72      0.000000      0.749010
  19:      1564.39     65.742239      0.068164
  20:      2010.16      0.000000      0.420216
  21:      2017.09    366.141140      0.086204
  22:      2028.32     72.198495      0.750000
  23:      2034.80      0.000000      0.111676

The first frequency considered to be a vibration is 6
The total number of vibrations considered is 18


--------------------------
THERMOCHEMISTRY AT 298.15K
--------------------------

Temperature         ...   298.15 K
Pressure            ...     1.00 atm
Total Mass          ...    60.01 AMU
Quasi RRHO          ...     True
Cut-Off Frequency   ...     1.00 cm^-1

Throughout the following assumptions are being made:
  (1) The electronic state is orbitally nondegenerate
  (2) There are no thermally accessible electronically excited states
  (3) Hindered rotations indicated by low frequency modes are not
      treated as such but are treated as vibrations and this may
      cause some error
  (4) All equations used are the standard statistical mechanics
      equations for an ideal gas
  (5) All vibrations are strictly harmonic

freq.     203.61  E(vib)   ...       0.35 
freq.     380.30  E(vib)   ...       0.21 
freq.     425.40  E(vib)   ...       0.18 
freq.     470.03  E(vib)   ...       0.16 
freq.     491.48  E(vib)   ...       0.14 
freq.     640.56  E(vib)   ...       0.09 
freq.     711.81  E(vib)   ...       0.07 
freq.     756.97  E(vib)   ...       0.06 
freq.     771.16  E(vib)   ...       0.05 
freq.     867.40  E(vib)   ...       0.04 
freq.    1323.61  E(vib)   ...       0.01 
freq.    1436.26  E(vib)   ...       0.00 
freq.    1515.72  E(vib)   ...       0.00 
freq.    1564.39  E(vib)   ...       0.00 
freq.    2010.16  E(vib)   ...       0.00 
freq.    2017.09  E(vib)   ...       0.00 
freq.    2028.32  E(vib)   ...       0.00 
freq.    2034.80  E(vib)   ...       0.00 

------------
INNER ENERGY
------------

The inner energy is: U= E(el) + E(ZPE) + E(vib) + E(rot) + E(trans)
    E(el)   - is the total energy from the electronic structure calculation
              = E(kin-el) + E(nuc-el) + E(el-el) + E(nuc-nuc)
    E(ZPE)  - the the zero temperature vibrational energy from the frequency calculation
    E(vib)  - the the finite temperature correction to E(ZPE) due to population
              of excited vibrational states
    E(rot)  - is the rotational thermal energy
    E(trans)- is the translational thermal energy

Summary of contributions to the inner energy U:
Electronic energy                ...   -487.78558196 Eh
Zero point energy                ...      0.04476388 Eh      28.09 kcal/mol
Thermal vibrational correction   ...      0.00216139 Eh       1.36 kcal/mol
Thermal rotational correction    ...      0.00141627 Eh       0.89 kcal/mol
Thermal translational correction ...      0.00141627 Eh       0.89 kcal/mol
-----------------------------------------------------------------------
Total thermal energy                   -487.73582414 Eh


Summary of corrections to the electronic energy:
(perhaps to be used in another calculation)
Total thermal correction                  0.00499394 Eh       3.13 kcal/mol
Non-thermal (ZPE) correction              0.04476388 Eh      28.09 kcal/mol
-----------------------------------------------------------------------
Total correction                          0.04975782 Eh      31.22 kcal/mol


--------
ENTHALPY
--------

The enthalpy is H = U + kB*T
                kB is Boltzmann's constant
Total thermal energy              ...   -487.73582414 Eh 
Thermal Enthalpy correction       ...      0.00094421 Eh       0.59 kcal/mol
-----------------------------------------------------------------------
Total Enthalpy                    ...   -487.73487993 Eh


Note: Rotational entropy computed according to Herzberg 
Infrared and Raman Spectra, Chapter V,1, Van Nostrand Reinhold, 1945 
Point Group:  C2h, Symmetry Number:   2  
Rotational constants in cm-1:     1.571832     0.153863     0.146583 

Vibrational entropy computed according to the QRRHO of S. Grimme
Chem.Eur.J. 2012 18 9955 using a reference frequency of 100.0 cm-1


-------
ENTROPY
-------

The entropy contributions are T*S = T*(S(el)+S(vib)+S(rot)+S(trans))
     S(el)   - electronic entropy
     S(vib)  - vibrational entropy
     S(rot)  - rotational entropy
     S(trans)- translational entropy
The entropies will be listed as multiplied by the temperature to get
units of energy

Electronic entropy                ...      0.00000000 Eh      0.00 kcal/mol
Vibrational entropy               ...      0.00323948 Eh      2.03 kcal/mol
Rotational entropy                ...      0.01043295 Eh      6.55 kcal/mol
Translational entropy             ...      0.01814806 Eh     11.39 kcal/mol
-----------------------------------------------------------------------
Final entropy term                ...      0.03182049 Eh     19.97 kcal/mol

In case the symmetry of your molecule has not been determined correctly
or in case you have a reason to use a different symmetry number we print 
out the resulting rotational entropy values for sn=1,12:

 non-linear molecules -----------------------------------
|  sn= 1 | S(rot)=       0.01108741 Eh      6.96 kcal/mol|
|  sn= 2 | S(rot)=       0.01043295 Eh      6.55 kcal/mol|
|  sn= 3 | S(rot)=       0.01005012 Eh      6.31 kcal/mol|
|  sn= 4 | S(rot)=       0.00977850 Eh      6.14 kcal/mol|
|  sn= 5 | S(rot)=       0.00956781 Eh      6.00 kcal/mol|
|  sn= 6 | S(rot)=       0.00939566 Eh      5.90 kcal/mol|
|  sn= 7 | S(rot)=       0.00925012 Eh      5.80 kcal/mol|
|  sn= 8 | S(rot)=       0.00912404 Eh      5.73 kcal/mol|
|  sn= 9 | S(rot)=       0.00901283 Eh      5.66 kcal/mol|
|  sn=10 | S(rot)=       0.00891335 Eh      5.59 kcal/mol|
|  sn=11 | S(rot)=       0.00882336 Eh      5.54 kcal/mol|
|  sn=12 | S(rot)=       0.00874121 Eh      5.49 kcal/mol|
 linear molecules ---------------------------------------
|  Dinfh | S(rot)=       0.00713879 Eh      4.48 kcal/mol|
|  Cinfv | S(rot)=       0.00779325 Eh      4.89 kcal/mol|
 --------------------------------------------------------


-------------------
GIBBS FREE ENERGY
-------------------

The Gibbs free energy is G = H - T*S

Total enthalpy                    ...   -487.73487993 Eh 
Total entropy correction          ...     -0.03182049 Eh    -19.97 kcal/mol
-----------------------------------------------------------------------
Final Gibbs free energy         ...   -487.76670042 Eh

For completeness - the Gibbs free energy minus the electronic energy
G-E(el)                           ...      0.01888154 Eh     11.85 kcal/mol


Maximum memory used throughout the entire PROP-calculation: 25.9 MB

--------------------------------
SUGGESTED CITATIONS FOR THIS RUN
--------------------------------

Below you find a list of papers that are relevant to this ORCA run
We neither can nor want to force you to cite these papers, but we appreciate if you do
You receive ORCA, which is the product of decades of hard work by many enthusiastic individuals, for free
The only thing we kindly ask in return is that you cite our papers,
We deeply appreciate it, if you show your appreciation for ORCA by not just citing the generic ORCA reference.

Please note that relegating all ORCA citations to the supporting information does *not* help us.
SI sections are not indexed - citations you put there will not count into any citation statistics
But we need these citations in order to attract the funding resources that allow us to do what we are doing

Therefore, if you are a happy ORCA user, please consider citing a few of the papers listed below in the main body of your paper

In addition to the list printed below, the program has created the file run.bibtex that contains the list in bibtex format
You can import this file easily into all common literature databanks and citation aid programs


List of essential papers. We consider these as the minimum necessary citations

  1. Neese, F.
     Software update: the ORCA program system, version 6.0
     WIRES Comput. Molec. Sci. 2025 15(1), e70019
     doi.org/10.1002/wcms.7019

List of papers to cite with high priority. The work reported in these papers was absolutely
necessary for this run to complete.
Our perspective: the developers of density functionals and basis sets usually get cited in chemistry papers
Good! But without the algorithms to do something with them, the functionals or basis sets would not do anything.
Hence, in our opinion, the algorithm design and method developments papers are equally worthy of getting cited

  1. Neese, F.
     An improvement of the resolution of the identity approximation for the formation of the Coulomb matrix
     J. Comp. Chem. 2003 24(14), 1740-1747
     doi.org/10.1002/jcc.10318
  2. Neese, F.; Wennmohs, F.; Hansen, A.; Becker, U.
     Efficient, approximate and parallel Hartree-Fock and hybrid DFT calculations. A 'chain-of-spheres' algorithm for the Hartree-Fock exchange
     Chem. Phys. 2009 356(1-3), 98-109
     doi.org/10.1016/j.chemphys.2008.10.036
  3. Grimme, S.; Antony, J.; Ehrlich, S.; Krieg, H.
     A consistent and accurate ab initio parametrization of density functional dispersion correction (DFT-D) for the 94 elements H-Pu
     J. Chem. Phys. 2010 132 , 154104
     doi.org/10.1063/1.3382344
  4. Grimme, S.; Ehrlich, S.; Goerigk, L.
     Effect of the damping function in dispersion corrected density functional theory
     J. Comput. Chem. 2011 32(7), 1456-1465
     doi.org/10.1002/jcc.21759
  5. Bykov, D.; Petrenko, T.; Izsak, R.; Kossmann, S.; Becker, U.; Valeev, E.; Neese, F.
     Efficient implementation of the analytic second derivatives of Hartree-Fock and hybrid DFT energies: a detailed analysis of different approximations
     Molec. Phys. 2015 113 , 1961-1977
     doi.org/10.1080/00268976.2015.1025114
  6. Helmich-Paris, B.; de Souza, B.; Neese, F.; Izsák, R.
     An improved chain of spheres for exchange algorithm
     J. Chem. Phys. 2021 155(10), 104109
     doi.org/10.1063/5.0058766
  7. Neese, F.
     The SHARK Integral Generation and Digestion System
     J. Comp. Chem. 2022 44(3), 381
     doi.org/10.1002/jcc.26942
  8. Petra, P.; Frank, N.
     Efficient calculation of analytic Raman intensities
     to be submitted 2025  , 

List of suggested additional citations. These are papers that are important in the 'surrounding' of 
of this run, or papers that preceded the highly important papers. If you like your results we are grateful for a citation.

  1. Izsak, R.; Neese, F.
     An overlap fitted chain of spheres exchange method
     J. Chem. Phys. 2011 135 , 144105
     doi.org/10.1063/1.3646921
  2. Izsak, R.; Hansen, A.; Neese, F.
     The resolution of identity and chain of spheres approximations for the LPNO-CCSD singles Fock term
     Molec. Phys. 2012 110 , 2413-2417
     doi.org/10.1080/00268976.2012.687466
  3. Neese, F.
     The ORCA program system
     WIRES Comput. Molec. Sci. 2012 2(1), 73-78
     doi.org/10.1002/wcms.81
  4. Izsak, R.; Neese, F.; Klopper, W.
     Robust fitting techniques in the chain of spheres approximation to the Fock exchange: The role of the complementary space
     J. Chem. Phys. 2013 139 , 
     doi.org/10.1063/1.4819264
  5. Neese, F.
     Software update: the ORCA program system, version 4.0
     WIRES Comput. Molec. Sci. 2018 8(1), 1-6
     doi.org/10.1002/wcms.1327
  6. Neese, F.; Wennmohs, F.; Becker, U.; Riplinger, C.
     The ORCA quantum chemistry program package
     J. Chem. Phys. 2020 152(22), 224108
     doi.org/10.1063/5.0004608
  7. Neese, F.
     Software update: The ORCA program system—Version 5.0
     WIRES Comput. Molec. Sci. 2022 12(1), e1606
     doi.org/10.1002/wcms.1606

List of optional additional citations

  1. Neese, F.
     Approximate second-order SCF convergence for spin unrestricted wavefunctions
     Chem. Phys. Lett. 2000 325(1-3), 93-98
     doi.org/10.1016/s0009-2614(00)00662-x

Timings for individual modules:

Sum of individual times          ...      147.404 sec (=   2.457 min)
Startup calculation              ...       41.013 sec (=   0.684 min)  27.8 %
SCF iterations                   ...       48.865 sec (=   0.814 min)  33.2 %
Property integrals               ...       12.219 sec (=   0.204 min)   8.3 %
SCF Response                     ...        3.254 sec (=   0.054 min)   2.2 %
Property calculations            ...       18.271 sec (=   0.305 min)  12.4 %
SCF Gradient evaluation          ...       23.659 sec (=   0.394 min)  16.1 %
Geometry relaxation              ...        0.122 sec (=   0.002 min)   0.1 %
                             ****ORCA TERMINATED NORMALLY****
TOTAL RUN TIME: 0 days 0 hours 2 minutes 37 seconds 235 msec
