
                                 *****************
                                 * O   R   C   A *
                                 *****************

                                            #,                                       
                                            ###                                      
                                            ####                                     
                                            #####                                    
                                            ######                                   
                                           ########,                                 
                                     ,,################,,,,,                         
                               ,,#################################,,                 
                          ,,##########################################,,             
                       ,#########################################, ''#####,          
                    ,#############################################,,   '####,        
                  ,##################################################,,,,####,       
                ,###########''''           ''''###############################       
              ,#####''   ,,,,##########,,,,          '''####'''          '####       
            ,##' ,,,,###########################,,,                        '##       
           ' ,,###''''                  '''############,,,                           
         ,,##''                                '''############,,,,        ,,,,,,###''
      ,#''                                            '''#######################'''  
     '                                                          ''''####''''         
             ,#######,   #######,   ,#######,      ##                                
            ,#'     '#,  ##    ##  ,#'     '#,    #''#        ,####,    ,#,          
            ##       ##  ##   ,#'  ##            #'  '#       #'       ,# #          
            ##       ##  #######   ##           ,######,      #####,      #          
            '#,     ,#'  ##    ##  '#,     ,#' ,#      #,     #,   #      #          
             '#######'   ##     ##  '#######'  #'      '#     '####' #    #          



                #########################################################
                #                        -***-                          #
                #          Department of theory and spectroscopy        #
                #                                                       #
                #                      Frank Neese                      #
                #                                                       #
                #     Directorship, Architecture, Infrastructure        #
                #                    SHARK, DRIVERS                     #
                #        Core code/Algorithms in most modules           #
                #                                                       #
                #        Max Planck Institute fuer Kohlenforschung      #
                #                Kaiser Wilhelm Platz 1                 #
                #                 D-45470 Muelheim/Ruhr                 #
                #                      Germany                          #
                #                                                       #
                #                  All rights reserved                  #
                #                        -***-                          #
                #########################################################


                         Program Version 6.1.0  -  RELEASE   -
                                (GIT: $679e74b$)
                          ($2025-06-10 18:02:51 +0200$)


 With contributions from (in alphabetic order):
[Max-Planck-Institut fuer Kohlenforschung]                               
  Daniel Aravena         : Magnetic Suceptibility                        
  Michael Atanasov       : Ab Initio Ligand Field Theory (pilot matlab implementation)
  Alexander A. Auer      : GIAO ZORA, VPT2 properties, NMR spectrum      
  Ute Becker             : All parallelization in ORCA, NUMFREQ, NUMCALC 
  Giovanni Bistoni       : ED, misc. LED, open-shell LED, HFLD           
  Dmytro Bykov           : pre 5.0 version of the SCF Hessian            
  Marcos Casanova-Páez   : Triplet and SCS-CIS(D). UHF-(DLPNO)-IP/EA/STEOM-CCSD. UHF-CVS-IP/STEOM-CCSD   
  Vijay G. Chilkuri      : MRCI spin determinant printing, contributions to CSF-ICE 
  Pauline Colinet        : FMM embedding                                 
  Dipayan Datta          : RHF DLPNO-CCSD density                        
  Achintya Kumar Dutta   : EOM-CC, STEOM-CC                              
  Nicolas Foglia         : Exact transition moments, OPA infrastructure, MCD improvements    
  Dmitry Ganyushin       : Spin-Orbit,Spin-Spin,Magnetic field MRCI      
  Miquel Garcia-Rates    : C-PCM and meta-GGA Hessian, CCSD/C-PCM, Gaussian charge scheme 
  Tiago L. C. Gouveia    : GS-ROHF, GS-ROCIS                             
  Yang Guo               : DLPNO-NEVPT2, F12-NEVPT2, CIM, IAO-localization        
  Andreas Hansen         : Spin unrestricted coupled pair/coupled cluster methods 
  Ingolf Harden          : AUTO-CI MPn and infrastructure                
  Benjamin Helmich-Paris : MC-RPA, TRAH-(SCF,CASSCF), AVAS, COSX integrals, SCF dyn. polar., MC-PDFT, srDFT 
  Lee Huntington         : MR-EOM, pCC                                   
  Robert Izsak           : Overlap fitted RIJCOSX, COSX-SCS-MP3, EOM     
  Riya Kayal             : Wick's Theorem for AUTO-CI, AUTO-CI UHF-CCSDT 
  Emily Kempfer          : AUTO-CI RHF CISDT and CCSDT, approximate NEVPT4
  Christian Kollmar      : KDIIS, OOCD, Brueckner-CCSD(T), CCSD density, CASPT2, CASPT2-K, improved NEVPT2 
  Axel Koslowski         : Symmetry handling                             
  Simone Kossmann        : meta-GGA functionals, TD-DFT gradient, OOMP2, (MP2 Hessian; deprecated post 5.0) 
  Lucas Lang             : DCDCAS, Hyperfine gauge corrections, ICE-SOC+SSC
  Marvin Lechner         : AUTO-CI (C++ implementation), FIC-MRCC        
  Spencer Leger          : CASSCF response                               
  Dagmar Lenk            : GEPOL surface, SMD, ORCA-2-JSON               
  Dimitrios Liakos       : Extrapolation schemes; Compound Job, Property file
  Dimitrios Manganas     : Further ROCIS development; embedding schemes. LFT, Crystal Embedding 
  Dimitrios Pantazis     : SARC Basis sets                               
  Anastasios Papadopoulos: AUTO-CI, single reference methods and gradients 
  Taras Petrenko         : pre 6.0 DFT Hessian and TD-DFT gradient,  ECA, NRVS 
  Petra Pikulova         : Analytic Raman intensities                    
  Peter Pinski           : DLPNO-MP2, DLPNO-MP2 Gradient                 
  Shashank Vittal Rao    : ES-AILFT, MagRelax                            
  Christoph Reimann      : Effective Core Potentials                     
  Marius Retegan         : Local ZFS, SOC                                
  Christoph Riplinger    : Optimizer, TS searches, QM/MM, DLPNO-CCSD(T), (RO)-DLPNO pert. Triples 
  Michael Roemelt        : Original ROCIS implementation, recursive CI coupling coefficients
  Masaaki Saitow         : Open-shell DLPNO-CCSD energy and density      
  Barbara Sandhoefer     : DKH picture change effects                    
  Yorick L. A. Schmerwitz: GMF and freeze-and-release deltaSCF, NEB S-IDPP initial path                    
  Kantharuban Sivalingam : CASSCF convergence/infrastructure, NEVPT2, NEVPT3, NEVPT4(SD), FIC-MRCI and CEPA variants
  Bernardo de Souza      : ESD, SOC TD-DFT                               
  Georgi L. Stoychev     : AutoAux, RI-MP2 NMR, DLPNO-MP2 response, X2C  
  Van Anh Tran           : RI-MP2 g-tensors                              
  Willem Van den Heuvel  : Paramagnetic NMR                              
  Zikuan Wang            : NOTCH, Electric field optimization            
  Frank Wennmohs         : Technical directorship and infrastructure     
  Hang Xu                : AUTO-CI-Response properties                   
                                                                         
[FACCTs GmbH]                                                            
  Markus Bursch, Nicolas Foglia, Miquel Garcia-Rates, Ingolf Harden, Hagen Neugebauer, Anastasios Papadopoulos, 
  Christoph Riplinger, Bernardo de Souza, Georgi L. Stoychev                                                    
                                                                 
  APM, various basis sets, CI-OPT, improved COSX, DLPNO-Multilevel,           
  DOCKER, DRACO, updates on ESD, Fragmentator, GOAT, IRC, LR-CPCM, L-BFGS, MBIS, meta-GGA TD-DFT gradient, ML-optimized integration grids, 
  MM, NACMEs, nearIR, NEB, NEB-TS, NL-DFT gradient (VV10), 2- and 3-layer-ONIOM, interface openCOSMO-RS, QMMM,   
  Crystal-QMMM, RESP, rigid body optimization, SF, symmetry and pop. for TD-DFT, various functionals, SOLVATOR                                   
                                                                         
[Other institutions]                                                     
  V. Asgeirsson          : NEB                                           
  Christoph Bannwarth    : sTDA-DFT, sTD-DFT, PBEh-3c, B97-3c, D3        
  Giovanni Bistoni       : ETS/NOCV, ADLD/ADEX, COVALED                  
  Martin Brehm           : Molecular dynamics                            
  Ronald Cardenas        : ETS/NOCV                                      
  Martina Colucci        : COVALED                                       
  Sebastian Ehlert       : rSCAN, r2SCAN, r2SCAN-3c, D4, dhf basis sets  
  Marvin Friede          : D4 for Fr, Ra, Ac-Lr                          
  Lars Goerigk           : TD-DFT with DH, B97 family of functionals     
  Stefan Grimme          : VdW corrections, initial TS optimization, DFT functionals, gCP, sTDA/sTD-DF 
  Waldemar Hujo          : DFT-NL                                        
  H. Jonsson             : NEB                                           
  Holger Kruse           : gCP                                           
  Marcel Mueller         : wB97X-3c, vDZP basis set                      
  Hagen Neugebauer       : wr2SCAN, Native XTB                           
  Gianluca Regni         : ADLD/ADEX                                     
  Tobias Risthaus        : pre 6.0 range-separated hybrid DFT and stability analysis
  Lukas Wittmann         : regularized MP2, r2SCAN double-hybrids, wr2SCAN        
                                                                         
We gratefully acknowledge several colleagues who have allowed us to      
interface, adapt or use parts of their codes:                            
  Ed Valeev, F. Pavosevic, A. Kumar             : LibInt (2-el integral package), F12 methods 
  Garnet Chan, S. Sharma, J. Yang, R. Olivares  : DMRG                   
  Ulf Ekstrom                                   : XCFun DFT Library      
  Mihaly Kallay                                 : mrcc  (arbitrary order and MRCC methods)
  Frank Weinhold                                : gennbo (NPA and NBO analysis)           
  Simon Mueller                                 : openCOSMO-RS                            
  Christopher J. Cramer and Donald G. Truhlar   : smd solvation model                     
  S Lehtola, MJT Oliveira, MAL Marques          : LibXC Library                           
  Liviu Ungur et al                             : ANISO software                          


 Your calculation uses the libint2 library for the computation of 2-el integrals
 For citations please refer to: http://libint.valeyev.net

 Your ORCA version has been built with support for libXC version: 7.0.0
 For citations please refer to: https://libxc.gitlab.io

 This ORCA versions uses:
   CBLAS   interface :  Fast vector & matrix operations
   LAPACKE interface :  Fast linear algebra routines
   SCALAPACK package :  Parallel linear algebra routines
   Shared memory     :  Shared parallel matrices
   BLAS/LAPACK       :  OpenBLAS 0.3.29  USE64BITINT DYNAMIC_ARCH NO_AFFINITY Prescott SINGLE_THREADED
        Core in use  :  Prescott
   Copyright (c) 2011-2014, The OpenBLAS Project


  ***********************************
  * Starting time: Tue Aug 12 23:06:18 2025
  * Host name:     cuda2
  * Process ID:    146175
  * Working dir.:  /local/scratch/mehlhorn/61829
  ***********************************



***************************************
The coordinates will be read from file: start.xyz
***************************************


Your calculation utilizes the geometrical counterpoise correction gCP
Please cite in your paper:
H.Kruse, S. Grimme J.Chem.Phys., 136, (2012), 154101 
   

Your calculation utilizes the atom-pairwise dispersion correction
with the Becke-Johnson damping scheme (D3BJ)


Warning: RI is on but no J-basis has been assigned. Assigning Def2/J (nothing to worry about!)
================================================================================

cite the ECPs for Zr [Def2-ECP] as follows:
Ce-Yb(ecp-28): M. Dolg, H. Stoll, H.Preuss, J. Chem. Phys., 1989, 90, 1730-1734.
Y-Cd(ecp-28), Hf-Hg(ecp-46): D. Andrae,U. Haeussermann, M. Dolg, H. Stoll, H. Preuss, Theor. Chim. Acta, 1990, 77, 123-141.
In-Sb(ecp-28), Tl-Bi(ecp-46): B. Metz, H. Stoll, M. Dolg, J. Chem. Phys., 2000, 113, 2563-2569.
Te-Xe(ecp-28), Po-Rn(ecp-46): K. A. Peterson, D. Figgen, E. Goll, H. Stoll, M. Dolg, J. Chem. Phys., 2003, 119, 11113-11123.
Rb(ecp-28), Cs(ecp-46): T. Leininger, A. Nicklass, W. Kuechle, H. Stoll, M. Dolg, A. Bergner, Chem. Phys. Lett., 1996, 255, 274-280.
Sr(ecp-28), Ba(ecp-46): M. Kaupp, P. V. Schleyer, H. Stoll and H. Preuss, J. Chem. Phys., 1991, 94, 1360-1366.
La(ecp-46): M. Dolg, H. Stoll, A. Savin, H. Preuss, Theor. Chim. Acta, 1989, 75, 173-194.
Lu(ecp-28): X. Cao, M. Dolg, J. Chem. Phys., 2001, 115, 7348-7355.

ECP parameters for Zr [Def2-ECP] have been obtained from:
TURBOMOLE (7.0.2)

----- Orbital basis set information -----
Your calculation utilizes the basis: def2-SV(P)
   F. Weigend and R. Ahlrichs, Phys. Chem. Chem. Phys. 7, 3297 (2005).

----- AuxJ basis set information -----
Your calculation utilizes the auxiliary basis: def2/J
   H-Rn: F. Weigend, Phys. Chem. Chem. Phys. 8, 1057 (2006).
   Fr-Lr: K. Eichkorn, F. Weigend, O. Treutler, R. Ahlrichs; Theor. Chem. Acc. 97, 119 (1997).

================================================================================
                                        WARNINGS
                       Please study these warnings very carefully!
================================================================================


WARNING: Gradients are needed
  ===> : At least TightSCF should be used for SCF convergence

WARNING: Geometry Optimization
  ===> : Switching off AutoStart
         For restart on a previous wavefunction, please use MOREAD

================================================================================
                                       INPUT FILE
================================================================================
NAME = run.inp
|  1> # Geometry optimization for (AlH3)n cluster
|  2> 
|  3> %pal nprocs 24  end
|  4> 
|  5> %geom MaxIter 500 end
|  6> 
|  7> 
|  8> ! PBE def2-SV(P)
|  9> ! RKS	# closed shell for AlH3
| 10> ! D3    #  dispersion correction
| 11> ! gCP(DFT/SV(P))
| 12> ! Freq 	# Frequency analysis to check the stabiltity of the structures
| 13> 
| 14> ! NoPop # population analysis not necessary	
| 15> 
| 16> ! DEFGRID2
| 17> ! NormalSCF
| 18> ! SloppyOpt
| 19> 
| 20> ! SmallPrint
| 21> 
| 22> 
| 23> * xyzFile 0 1 start.xyz # only maingroup elements H and Al so there should be no net spin
| 24> 
| 25>                          ****END OF INPUT****
================================================================================

                       *****************************
                       * Geometry Optimization Run *
                       *****************************

Geometry optimization settings:
Update method            Update   .... BFGS
Choice of coordinates    CoordSys .... (2022) Redundant Internals
Initial Hessian          InHess   .... Almloef's Model
Max. no of cycles        MaxIter  .... 500

Convergence Tolerances:
Energy Change            TolE     ....  8.0000e-05 Eh
Max. Gradient            TolMAXG  ....  5.0000e-03 Eh/bohr
RMS Gradient             TolRMSG  ....  1.0000e-03 Eh/bohr
Max. Displacement        TolMAXD  ....  3.0000e-02 bohr
RMS Displacement         TolRMSD  ....  2.0000e-02 bohr
Strict Convergence                .... False

------------------------------------------------------------------------------
                        ORCA OPTIMIZATION COORDINATE SETUP
------------------------------------------------------------------------------

The optimization will be done in redundant internal coordinates (2022)
Making redundant internal coordinates   ...  (2022 redundants) done
Evaluating the initial hessian          ...  (Almloef) done
Evaluating the coordinates              ...  done
Calculating the B-matrix                .... done
Calculating the G-matrix                .... done
The number of degrees of freedom        ....  714

    -----------------------------------------------------------------
                    Redundant Internal Coordinates


    -----------------------------------------------------------------
         Definition                    Initial Value    Approx d2E/dq
    -----------------------------------------------------------------
      1. B(Zr  2,Zr  1)                  3.4292         0.035688   
      2. B(Zr  3,Zr  0)                  3.4309         0.035476   
      3. B(Zr  4,Zr  3)                  3.3859         0.041845   
      4. B(Zr  4,Zr  1)                  3.3877         0.041566   
      5. B(Zr  5,Zr  2)                  3.4112         0.038134   
      6. B(Zr  5,Zr  0)                  3.3820         0.042454   
      7. B(O   6,Zr  0)                  2.0947         0.425279   
      8. B(O   6,Zr  5)                  2.1684         0.324423   
      9. B(O   6,Zr  3)                  2.1285         0.375663   
     10. B(O   7,Zr  1)                  2.0910         0.431145   
     11. B(O   7,Zr  2)                  2.1095         0.402727   
     12. B(O   7,Zr  4)                  2.1546         0.341277   
     13. B(O   8,Zr  5)                  2.1672         0.325831   
     14. B(O   8,Zr  2)                  2.1316         0.371437   
     15. B(O   8,Zr  1)                  2.1498         0.347426   
     16. B(O   9,Zr  0)                  2.1548         0.341013   
     17. B(O   9,Zr  3)                  2.1319         0.370939   
     18. B(O   9,Zr  4)                  2.1728         0.319181   
     19. B(O  10,Zr  3)                  2.0710         0.463954   
     20. B(O  10,Zr  4)                  2.1254         0.379926   
     21. B(O  10,Zr  1)                  2.1081         0.404848   
     22. B(O  11,Zr  0)                  2.1089         0.403628   
     23. B(O  11,Zr  5)                  2.1114         0.399923   
     24. B(O  11,Zr  2)                  2.0882         0.435616   
     25. B(O  12,Zr  0)                  1.9836         0.639654   
     26. B(O  13,Zr  0)                  2.0002         0.601902   
     27. B(O  14,Zr  0)                  2.0662         0.472246   
     28. B(O  15,Zr  0)                  1.9923         0.619622   
     29. B(O  16,Zr  1)                  1.9940         0.615700   
     30. B(O  17,Zr  1)                  2.0697         0.466150   
     31. B(O  18,Zr  1)                  1.9953         0.612836   
     32. B(O  19,Zr  1)                  1.9913         0.621813   
     33. B(O  20,Zr  2)                  1.9713         0.669276   
     34. B(O  21,Zr  2)                  2.0546         0.492774   
     35. B(O  22,Zr  2)                  1.9984         0.605763   
     36. B(O  23,Zr  2)                  2.0446         0.511254   
     37. B(O  24,Zr  3)                  2.0238         0.551741   
     38. B(O  25,Zr  3)                  1.9926         0.618820   
     39. B(O  26,Zr  3)                  2.0664         0.471881   
     40. B(O  27,Zr  3)                  1.9758         0.658341   
     41. B(O  28,Zr  4)                  1.9775         0.654224   
     42. B(O  29,Zr  4)                  2.0346         0.530452   
     43. B(O  30,Zr  4)                  1.9856         0.635009   
     44. B(O  31,Zr  4)                  2.0683         0.468628   
     45. B(O  32,Zr  5)                  2.0632         0.477431   
     46. B(O  33,Zr  5)                  1.9806         0.646855   
     47. B(O  34,Zr  5)                  2.0426         0.514956   
     48. B(O  35,Zr  5)                  1.9804         0.647296   
     49. B(C  36,O  33)                  1.3005         0.777305   
     50. B(C  36,O  12)                  1.2996         0.780064   
     51. B(C  37,O  25)                  1.3024         0.772166   
     52. B(C  37,O  13)                  1.3025         0.771851   
     53. B(C  38,O  21)                  1.2974         0.786394   
     54. B(C  38,O  14)                  1.2973         0.786681   
     55. B(C  39,O  15)                  1.2951         0.792937   
     56. B(C  39,O  29)                  1.2954         0.792217   
     57. B(C  40,O  34)                  1.2962         0.789815   
     58. B(C  40,O  16)                  1.2968         0.788141   
     59. B(C  41,O  17)                  1.2968         0.788124   
     60. B(C  41,O  26)                  1.2968         0.788215   
     61. B(C  42,O  18)                  1.3022         0.772522   
     62. B(C  42,O  22)                  1.3022         0.772673   
     63. B(C  43,O  19)                  1.3009         0.776425   
     64. B(C  43,O  30)                  1.3017         0.773935   
     65. B(C  44,O  35)                  1.2989         0.781910   
     66. B(C  44,O  20)                  1.2982         0.784088   
     67. B(C  45,O  31)                  1.2988         0.782401   
     68. B(C  45,O  23)                  1.3008         0.776583   
     69. B(C  46,O  32)                  1.2974         0.786452   
     70. B(C  46,O  24)                  1.2988         0.782202   
     71. B(C  47,O  28)                  1.2986         0.782847   
     72. B(C  47,O  27)                  1.2983         0.783699   
     73. B(H  48,C  41)                  1.0846         0.367261   
     74. B(H  49,C  42)                  1.0918         0.357664   
     75. B(H  50,C  38)                  1.0852         0.366526   
     76. B(H  51,C  37)                  1.0920         0.357456   
     77. B(H  52,C  43)                  1.0919         0.357561   
     78. B(H  53,C  47)                  1.0900         0.360141   
     79. B(H  54,C  39)                  1.0859         0.365572   
     80. B(H  55,C  45)                  1.0874         0.363550   
     81. B(H  56,C  40)                  1.0865         0.364804   
     82. B(H  57,C  46)                  1.0867         0.364505   
     83. B(H  58,C  36)                  1.0912         0.358460   
     84. B(H  59,C  44)                  1.0898         0.360318   
     85. B(Al 61,Al 60)                  3.2912         0.028420   
     86. B(H  62,H  59)                  2.7185         0.010000   
     87. B(H  62,Al 61)                  1.6698         0.299853   
     88. B(H  62,C  44)                  3.2740         0.010000   
     89. B(H  63,C  44)                  3.1777         0.010000   
     90. B(H  63,O  21)                  2.6290         0.010000   
     91. B(H  63,O  20)                  2.6064         0.010000   
     92. B(H  63,Al 61)                  1.5959         0.393394   
     93. B(H  63,H  50)                  3.3719         0.010000   
     94. B(H  63,H  59)                  3.3092         0.010000   
     95. B(H  64,O  21)                  3.2218         0.010000   
     96. B(H  64,C  38)                  2.9963         0.010000   
     97. B(H  64,H  50)                  2.7790         0.010000   
     98. B(H  64,Al 61)                  1.6692         0.300533   
     99. B(H  64,Al 60)                  1.6685         0.301287   
    100. B(H  65,O  33)                  3.2368         0.010000   
    101. B(H  65,O  12)                  3.0794         0.010000   
    102. B(H  65,C  38)                  3.0255         0.010000   
    103. B(H  65,H  50)                  2.9736         0.010000   
    104. B(H  65,H  58)                  2.8501         0.010000   
    105. B(H  65,C  36)                  2.8020         0.010000   
    106. B(H  65,O  14)                  2.6065         0.010000   
    107. B(H  65,Al 60)                  1.5953         0.394349   
    108. B(H  66,C  36)                  3.2197         0.010000   
    109. B(H  66,H  58)                  3.1088         0.010000   
    110. B(H  66,O  33)                  2.7409         0.010000   
    111. B(H  66,Al 60)                  1.6692         0.300594   
    112. B(H  66,O  35)                  3.3122         0.010000   
    113. B(H  67,Al 61)                  1.5961         0.393174   
    114. B(Al 68,H  59)                  2.9358         0.010000   
    115. B(Al 68,H  62)                  1.6697         0.300039   
    116. B(Al 68,Al 61)                  3.3133         0.026210   
    117. B(H  69,H  59)                  2.9828         0.010000   
    118. B(H  69,Al 68)                  1.6695         0.300224   
    119. B(H  69,O  35)                  3.3688         0.010000   
    120. B(H  70,H  59)                  2.7344         0.010000   
    121. B(H  70,Al 68)                  1.5961         0.393184   
    122. B(H  71,Al 60)                  1.5953         0.394336   
    123. B(Al 72,O  35)                  3.2710         0.010000   
    124. B(Al 72,H  69)                  1.6691         0.300656   
    125. B(Al 72,Al 68)                  3.3129         0.026242   
    126. B(Al 72,H  66)                  1.6700         0.299710   
    127. B(Al 72,Al 60)                  3.2979         0.027735   
    128. B(Al 72,O  33)                  3.3026         0.010000   
    129. B(H  73,O  33)                  2.7948         0.010000   
    130. B(H  73,O  35)                  2.6982         0.010000   
    131. B(H  73,Al 72)                  1.5961         0.393132   
    132. B(H  74,Al 72)                  1.5952         0.394435   
    133. B(H  75,Al 68)                  1.5962         0.392964   
    134. A(O   9,Zr  0,O  15)           74.6952         0.486293   
    135. A(O  11,Zr  0,O  12)          103.1260         0.504727   
    136. A(Zr  3,Zr  0,Zr  5)           71.0052         0.251636   
    137. A(O   6,Zr  0,O   9)           68.8818         0.453851   
    138. A(O   6,Zr  0,O  14)          127.4996         0.481752   
    139. A(O  13,Zr  0,O  15)           85.5233         0.540815   
    140. A(O   6,Zr  0,O  12)           80.4749         0.509673   
    141. A(O   9,Zr  0,O  13)           76.2761         0.483692   
    142. A(O  13,Zr  0,O  14)          132.6413         0.513876   
    143. A(Zr  3,Zr  0,O   6)           36.0006         0.333734   
    144. A(O   9,Zr  0,O  12)          140.5115         0.489164   
    145. A(O  11,Zr  0,O  13)          157.0318         0.499042   
    146. A(Zr  3,Zr  0,O  12)          105.3578         0.357421   
    147. A(O   6,Zr  0,O  13)           92.2192         0.503920   
    148. A(Zr  3,Zr  0,O  11)           85.9339         0.330856   
    149. A(O   9,Zr  0,O  11)           87.3305         0.449561   
    150. A(O  11,Zr  0,O  14)           70.1454         0.477135   
    151. A(O  11,Zr  0,O  15)          105.7853         0.501744   
    152. A(Zr  5,Zr  0,O   9)           93.7575         0.331459   
    153. A(O  12,Zr  0,O  14)           81.7979         0.519766   
    154. A(O   6,Zr  0,O  11)           66.5946         0.468040   
    155. A(Zr  3,Zr  0,O   9)           36.6088         0.321802   
    156. A(O   9,Zr  0,O  14)          136.7653         0.462605   
    157. A(O  12,Zr  0,O  13)           80.7954         0.544080   
    158. A(O  14,Zr  0,O  15)           76.6948         0.516675   
    159. A(Zr  5,Zr  0,O  11)           36.7669         0.340889   
    160. A(O   6,Zr  0,O  15)          142.9466         0.506654   
    161. A(Zr  3,Zr  0,O  15)          110.2661         0.355495   
    162. A(Zr  5,Zr  0,O  13)          127.3327         0.364733   
    163. A(O  12,Zr  0,O  15)          135.0832         0.547079   
    164. A(Zr  5,Zr  0,O   6)           38.2707         0.343886   
    165. A(Zr  5,Zr  0,O  12)           75.2786         0.368556   
    166. A(Zr  5,Zr  0,O  15)          142.1697         0.366550   
    167. A(Zr  3,Zr  0,O  13)           71.2946         0.353751   
    168. A(Zr  5,Zr  0,O  14)           89.4039         0.350001   
    169. A(Zr  3,Zr  0,O  14)          156.0610         0.339606   
    170. A(O   8,Zr  1,O  16)           74.5589         0.487399   
    171. A(Zr  4,Zr  1,O  16)          142.4844         0.364828   
    172. A(O  16,Zr  1,O  17)           77.8070         0.514807   
    173. A(Zr  2,Zr  1,O  10)           85.1631         0.331348   
    174. A(O   7,Zr  1,O  10)           66.0654         0.469477   
    175. A(O   8,Zr  1,O  10)           87.3519         0.451332   
    176. A(O   7,Zr  1,O  18)           92.1924         0.506908   
    177. A(O  10,Zr  1,O  16)          105.9030         0.501433   
    178. A(O   7,Zr  1,O  17)          126.8406         0.481815   
    179. A(Zr  4,Zr  1,O  19)           74.2441         0.365445   
    180. A(O  17,Zr  1,O  18)          132.6511         0.514358   
    181. A(O  16,Zr  1,O  19)          135.7752         0.543501   
    182. A(Zr  2,Zr  1,O   8)           36.5949         0.323102   
    183. A(O  16,Zr  1,O  18)           85.9284         0.542008   
    184. A(O  10,Zr  1,O  17)           70.3214         0.476259   
    185. A(Zr  2,Zr  1,O  19)          105.5728         0.356068   
    186. A(Zr  2,Zr  1,Zr  4)           70.1205         0.251078   
    187. A(Zr  2,Zr  1,O  16)          110.2858         0.355471   
    188. A(O   8,Zr  1,O  18)           76.3459         0.486978   
    189. A(O   7,Zr  1,O  19)           80.5835         0.508286   
    190. A(O  17,Zr  1,O  19)           80.2541         0.515760   
    191. A(O  10,Zr  1,O  19)          102.0337         0.502356   
    192. A(O   8,Zr  1,O  17)          137.8133         0.463082   
    193. A(Zr  2,Zr  1,O  17)          155.4840         0.339207   
    194. A(O  10,Zr  1,O  18)          156.6883         0.500998   
    195. A(Zr  2,Zr  1,O  18)           71.7928         0.355190   
    196. A(O  18,Zr  1,O  19)           81.4384         0.543022   
    197. A(Zr  4,Zr  1,O   7)           37.7198         0.343456   
    198. A(Zr  4,Zr  1,O  18)          126.4673         0.364537   
    199. A(O   7,Zr  1,O  16)          142.3823         0.507350   
    200. A(Zr  4,Zr  1,O   8)           93.6237         0.331321   
    201. A(Zr  4,Zr  1,O  10)           37.0251         0.339858   
    202. A(Zr  2,Zr  1,O   7)           35.4553         0.334825   
    203. A(O   8,Zr  1,O  19)          140.7642         0.488290   
    204. A(O   7,Zr  1,O   8)           68.5349         0.456530   
    205. A(Zr  4,Zr  1,O  17)           89.2836         0.347992   
    206. A(Zr  1,Zr  2,O  21)          155.9076         0.342372   
    207. A(O   8,Zr  2,O  21)          130.0874         0.473587   
    208. A(O  20,Zr  2,O  21)           82.8007         0.528414   
    209. A(O   8,Zr  2,O  20)           80.1113         0.501181   
    210. A(O  20,Zr  2,O  23)          136.4444         0.532091   
    211. A(O  11,Zr  2,O  23)          108.6970         0.491050   
    212. A(O  22,Zr  2,O  23)           83.2533         0.522204   
    213. A(O  21,Zr  2,O  23)           78.0339         0.502428   
    214. A(O   7,Zr  2,O   8)           68.5419         0.456417   
    215. A(Zr  5,Zr  2,O   8)           37.8499         0.330263   
    216. A(Zr  1,Zr  2,O  20)          107.7380         0.360552   
    217. A(O  11,Zr  2,O  22)          156.4038         0.506786   
    218. A(O  11,Zr  2,O  20)          101.1767         0.516322   
    219. A(Zr  1,Zr  2,Zr  5)           70.1847         0.247948   
    220. A(O   8,Zr  2,O  11)           67.0722         0.463004   
    221. A(O   7,Zr  2,O  22)           78.1089         0.499429   
    222. A(O   8,Zr  2,O  23)          140.6626         0.476805   
    223. A(Zr  5,Zr  2,O  23)          143.1519         0.348355   
    224. A(O   7,Zr  2,O  23)           72.1751         0.483970   
    225. A(Zr  5,Zr  2,O   7)           90.9489         0.334720   
    226. A(Zr  1,Zr  2,O   8)           36.9588         0.326669   
    227. A(O   8,Zr  2,O  22)           90.6458         0.491984   
    228. A(O  21,Zr  2,O  22)          132.4284         0.518609   
    229. A(O  20,Zr  2,O  22)           81.5321         0.549433   
    230. A(O   7,Zr  2,O  11)           86.1656         0.469913   
    231. A(O  11,Zr  2,O  21)           70.9291         0.487714   
    232. A(Zr  5,Zr  2,O  11)           35.9112         0.339125   
    233. A(Zr  1,Zr  2,O  11)           85.5931         0.335400   
    234. A(Zr  5,Zr  2,O  22)          126.0186         0.358506   
    235. A(O   7,Zr  2,O  21)          133.8915         0.480692   
    236. A(Zr  1,Zr  2,O  23)          105.5223         0.344492   
    237. A(O   7,Zr  2,O  20)          142.0626         0.508796   
    238. A(Zr  1,Zr  2,O   7)           35.0971         0.331060   
    239. A(Zr  1,Zr  2,O  22)           71.4109         0.354492   
    240. A(Zr  5,Zr  2,O  21)           92.4785         0.346203   
    241. A(Zr  5,Zr  2,O  20)           75.7310         0.364657   
    242. A(O   6,Zr  3,O  10)           85.1037         0.469350   
    243. A(O   9,Zr  3,O  27)           80.2163         0.499523   
    244. A(O  10,Zr  3,O  27)          102.8038         0.520848   
    245. A(O  24,Zr  3,O  27)          136.6848         0.538123   
    246. A(O   9,Zr  3,O  10)           67.5012         0.468262   
    247. A(Zr  4,Zr  3,O  10)           36.7576         0.348108   
    248. A(O   6,Zr  3,O  24)           72.8991         0.484564   
    249. A(O  24,Zr  3,O  25)           84.7242         0.531873   
    250. A(Zr  4,Zr  3,O  24)          141.3374         0.358473   
    251. A(O   6,Zr  3,O  27)          142.1846         0.500700   
    252. A(Zr  4,Zr  3,O  27)           75.5102         0.369466   
    253. A(O   9,Zr  3,O  26)          128.6816         0.469719   
    254. A(O  25,Zr  3,O  27)           82.0459         0.549939   
    255. A(O  26,Zr  3,O  27)           81.1019         0.522507   
    256. A(O  25,Zr  3,O  26)          132.2005         0.516475   
    257. A(Zr  0,Zr  3,Zr  4)           71.2230         0.251106   
    258. A(Zr  4,Zr  3,O  26)           90.4454         0.349104   
    259. A(O   6,Zr  3,O   9)           68.6980         0.450567   
    260. A(Zr  0,Zr  3,O  26)          156.2489         0.339562   
    261. A(Zr  4,Zr  3,O   9)           38.5654         0.335313   
    262. A(O  10,Zr  3,O  26)           70.8641         0.489496   
    263. A(O  24,Zr  3,O  26)           77.8734         0.505517   
    264. A(O  10,Zr  3,O  25)          156.8481         0.514839   
    265. A(Zr  0,Zr  3,O  27)          107.6080         0.359176   
    266. A(O   9,Zr  3,O  24)          141.3364         0.483433   
    267. A(Zr  0,Zr  3,O   9)           37.0673         0.326277   
    268. A(Zr  0,Zr  3,O   6)           35.3429         0.326958   
    269. A(Zr  0,Zr  3,O  24)          106.8100         0.348587   
    270. A(O  10,Zr  3,O  24)          105.3225         0.503923   
    271. A(Zr  4,Zr  3,O  25)          127.4717         0.365563   
    272. A(Zr  0,Zr  3,O  25)           71.4945         0.355417   
    273. A(Zr  0,Zr  3,O  10)           85.5428         0.338603   
    274. A(O   9,Zr  3,O  25)           91.4924         0.493810   
    275. A(O   6,Zr  3,O  25)           77.9139         0.494971   
    276. A(O   6,Zr  3,O  26)          135.3433         0.470811   
    277. A(Zr  4,Zr  3,O   6)           91.8190         0.336020   
    278. A(Zr  1,Zr  4,Zr  3)           72.2025         0.257024   
    279. A(O   9,Zr  4,O  10)           65.8184         0.439370   
    280. A(O   7,Zr  4,O  10)           64.6594         0.444718   
    281. A(Zr  3,Zr  4,O  10)           35.6701         0.336652   
    282. A(O   9,Zr  4,O  29)           71.5210         0.466862   
    283. A(O  28,Zr  4,O  30)           82.0952         0.551983   
    284. A(O  30,Zr  4,O  31)           82.3666         0.518308   
    285. A(O  29,Zr  4,O  31)           73.6876         0.501178   
    286. A(O   7,Zr  4,O  31)           68.7351         0.462020   
    287. A(O  28,Zr  4,O  31)          125.4401         0.521215   
    288. A(O  10,Zr  4,O  31)          131.9700         0.471188   
    289. A(O   9,Zr  4,O  31)          132.7216         0.456411   
    290. A(Zr  3,Zr  4,O  31)          160.5086         0.348697   
    291. A(Zr  1,Zr  4,O  31)           96.3132         0.348303   
    292. A(O  29,Zr  4,O  30)          135.8965         0.530520   
    293. A(O  10,Zr  4,O  30)           86.9144         0.498396   
    294. A(O   9,Zr  4,O  30)          144.4430         0.482566   
    295. A(O   7,Zr  4,O  30)           90.4014         0.488574   
    296. A(Zr  3,Zr  4,O  30)          107.3843         0.367184   
    297. A(Zr  1,Zr  4,O  30)           70.3917         0.366762   
    298. A(O  28,Zr  4,O  29)           82.5130         0.533509   
    299. A(O  10,Zr  4,O  29)          136.3034         0.482060   
    300. A(O   7,Zr  4,O  29)          113.4730         0.472631   
    301. A(Zr  3,Zr  4,O  29)          107.2769         0.356084   
    302. A(Zr  1,Zr  4,O  29)          147.3592         0.355679   
    303. A(Zr  3,Zr  4,O   9)           37.7104         0.327076   
    304. A(O   7,Zr  4,O  28)          162.3650         0.491280   
    305. A(Zr  3,Zr  4,O   7)           93.8953         0.330710   
    306. A(Zr  1,Zr  4,O   9)           96.0624         0.326715   
    307. A(Zr  3,Zr  4,O  28)           73.4033         0.369068   
    308. A(O   7,Zr  4,O   9)           97.3335         0.430964   
    309. A(O  10,Zr  4,O  28)           98.8584         0.501167   
    310. A(O   9,Zr  4,O  28)           80.2281         0.485231   
    311. A(Zr  1,Zr  4,O   7)           36.4223         0.330344   
    312. A(Zr  1,Zr  4,O  28)          126.1171         0.368643   
    313. A(Zr  1,Zr  4,O  10)           36.6743         0.336276   
    314. A(O  11,Zr  5,O  35)           94.0761         0.504977   
    315. A(O  34,Zr  5,O  35)           81.6381         0.529474   
    316. A(O  33,Zr  5,O  35)           82.3135         0.552805   
    317. A(O  32,Zr  5,O  35)          129.0662         0.521995   
    318. A(O   8,Zr  5,O  35)           81.6343         0.486127   
    319. A(O   6,Zr  5,O  35)          156.8614         0.485737   
    320. A(Zr  2,Zr  5,O  35)           71.9788         0.362581   
    321. A(O  33,Zr  5,O  34)          130.3882         0.529406   
    322. A(O  32,Zr  5,O  34)           73.5859         0.500150   
    323. A(O  11,Zr  5,O  34)          136.7890         0.483990   
    324. A(Zr  0,Zr  5,O  35)          120.1265         0.369308   
    325. A(O  32,Zr  5,O  33)           81.2109         0.521928   
    326. A(O   6,Zr  5,O  34)          120.2800         0.465722   
    327. A(Zr  2,Zr  5,O  34)          104.7814         0.348779   
    328. A(Zr  0,Zr  5,O  34)          153.6480         0.355166   
    329. A(O  11,Zr  5,O  33)           90.9178         0.504913   
    330. A(O   8,Zr  5,O  33)          150.6942         0.486065   
    331. A(O   6,Zr  5,O  33)           87.5255         0.485676   
    332. A(Zr  0,Zr  5,O  33)           71.1959         0.369265   
    333. A(O  11,Zr  5,O  32)          133.9103         0.477284   
    334. A(O   8,Zr  5,O  32)          127.6699         0.459688   
    335. A(O   6,Zr  5,O  32)           69.0758         0.459325   
    336. A(Zr  2,Zr  5,O  32)          157.0451         0.344368   
    337. A(Zr  0,Zr  5,O  32)           99.1357         0.350647   
    338. A(Zr  2,Zr  5,O   6)           93.6444         0.322985   
    339. A(Zr  0,Zr  5,O   6)           36.7504         0.328738   
    340. A(Zr  0,Zr  5,Zr  2)           71.9225         0.254318   
    341. A(O   8,Zr  5,O  34)           70.8232         0.466091   
    342. A(O   8,Zr  5,O  11)           66.0232         0.445119   
    343. A(O   6,Zr  5,O  11)           65.2448         0.444770   
    344. A(Zr  2,Zr  5,O  11)           35.4553         0.334332   
    345. A(Zr  0,Zr  5,O  11)           36.7160         0.340364   
    346. A(O   6,Zr  5,O   8)           97.9469         0.428648   
    347. A(Zr  2,Zr  5,O  33)          114.0970         0.362539   
    348. A(Zr  2,Zr  5,O   8)           37.1209         0.323214   
    349. A(Zr  0,Zr  5,O   8)           96.2708         0.328973   
    350. A(Zr  3,O   6,Zr  5)          134.0924         0.439767   
    351. A(Zr  0,O   6,Zr  5)          104.9789         0.449755   
    352. A(Zr  0,O   6,Zr  3)          108.6564         0.461930   
    353. A(Zr  2,O   7,Zr  4)          133.3748         0.449442   
    354. A(Zr  1,O   7,Zr  4)          105.8579         0.455048   
    355. A(Zr  1,O   7,Zr  2)          109.4476         0.469025   
    356. A(Zr  1,O   8,Zr  2)          106.4463         0.444337   
    357. A(Zr  2,O   8,Zr  5)          105.0292         0.439213   
    358. A(Zr  1,O   8,Zr  5)          131.2744         0.433956   
    359. A(Zr  3,O   9,Zr  4)          103.7243         0.437476   
    360. A(Zr  0,O   9,Zr  4)          133.0496         0.430905   
    361. A(Zr  0,O   9,Zr  3)          106.3239         0.442734   
    362. A(Zr  3,O  10,Zr  4)          107.5723         0.470322   
    363. A(Zr  1,O  10,Zr  4)          106.3006         0.458741   
    364. A(Zr  1,O  10,Zr  3)          145.4955         0.475846   
    365. A(Zr  2,O  11,Zr  5)          108.6335         0.469311   
    366. A(Zr  0,O  11,Zr  5)          106.5170         0.462803   
    367. A(Zr  0,O  11,Zr  2)          143.7864         0.470106   
    368. A(Zr  0,O  12,C  36)          126.8392         0.505842   
    369. A(Zr  0,O  13,C  37)          126.4668         0.499158   
    370. A(Zr  0,O  14,C  38)          135.7544         0.478920   
    371. A(Zr  0,O  15,C  39)          138.6685         0.504387   
    372. A(Zr  1,O  16,C  40)          138.6490         0.503221   
    373. A(Zr  1,O  17,C  41)          137.9347         0.477936   
    374. A(Zr  1,O  18,C  42)          126.6574         0.500914   
    375. A(Zr  1,O  19,C  43)          125.2782         0.502743   
    376. A(Zr  2,O  20,C  44)          129.3637         0.510625   
    377. A(Zr  2,O  21,C  38)          139.1443         0.482661   
    378. A(Zr  2,O  22,C  42)          127.2342         0.499851   
    379. A(Zr  2,O  23,C  45)          136.1634         0.484828   
    380. A(Zr  3,O  24,C  46)          137.5133         0.492373   
    381. A(Zr  3,O  25,C  37)          126.9080         0.501777   
    382. A(Zr  3,O  26,C  41)          138.2493         0.479024   
    383. A(Zr  3,O  27,C  47)          130.2064         0.509009   
    384. A(Zr  4,O  28,C  47)          133.1758         0.508310   
    385. A(Zr  4,O  29,C  39)          139.2198         0.489950   
    386. A(Zr  4,O  30,C  43)          129.3873         0.504412   
    387. A(Zr  4,O  31,C  45)          128.4820         0.477761   
    388. A(Zr  5,O  32,C  46)          131.7619         0.479859   
    389. A(Zr  5,O  33,C  36)          131.1604         0.506564   
    390. A(C  36,O  33,Al 72)          119.3848         0.214452   
    391. A(Zr  5,O  33,Al 72)          109.4375         0.228323   
    392. A(Zr  5,O  34,C  40)          135.3889         0.486994   
    393. A(C  44,O  35,Al 72)          114.0492         0.217963   
    394. A(Zr  5,O  35,Al 72)          110.6162         0.232053   
    395. A(Zr  5,O  35,C  44)          133.4010         0.507187   
    396. A(O  12,C  36,O  33)          126.9382         0.465293   
    397. A(O  33,C  36,H  58)          116.5629         0.364197   
    398. A(O  12,C  36,H  58)          116.4917         0.364418   
    399. A(O  13,C  37,O  25)          127.2153         0.463830   
    400. A(O  25,C  37,H  51)          116.3909         0.363609   
    401. A(O  13,C  37,H  51)          116.3938         0.363584   
    402. A(O  14,C  38,O  21)          130.1314         0.467006   
    403. A(O  21,C  38,H  50)          114.9056         0.366315   
    404. A(O  14,C  38,H  50)          114.9439         0.366338   
    405. A(O  15,C  39,O  29)          129.0293         0.468318   
    406. A(O  29,C  39,H  54)          115.4558         0.366615   
    407. A(O  15,C  39,H  54)          115.5093         0.366672   
    408. A(O  16,C  40,O  34)          129.1592         0.467537   
    409. A(O  34,C  40,H  56)          115.3786         0.366292   
    410. A(O  16,C  40,H  56)          115.4570         0.366159   
    411. A(O  17,C  41,O  26)          130.1690         0.467361   
    412. A(O  26,C  41,H  48)          114.9122         0.366586   
    413. A(O  17,C  41,H  48)          114.9098         0.366579   
    414. A(O  18,C  42,O  22)          127.3343         0.463959   
    415. A(O  22,C  42,H  49)          116.3166         0.363687   
    416. A(O  18,C  42,H  49)          116.3490         0.363674   
    417. A(O  30,C  43,H  52)          116.6516         0.363770   
    418. A(O  19,C  43,H  52)          116.5824         0.363970   
    419. A(O  19,C  43,O  30)          126.7624         0.464526   
    420. A(O  35,C  44,H  59)          116.3920         0.364888   
    421. A(O  20,C  44,H  59)          116.2644         0.365061   
    422. A(O  20,C  44,O  35)          127.3435         0.466236   
    423. A(O  31,C  45,H  55)          115.1043         0.365485   
    424. A(O  23,C  45,H  55)          115.3026         0.365018   
    425. A(O  23,C  45,O  31)          129.5871         0.465469   
    426. A(O  32,C  46,H  57)          115.2151         0.365973   
    427. A(O  24,C  46,H  57)          115.3373         0.365633   
    428. A(O  24,C  46,O  32)          129.4418         0.466525   
    429. A(O  28,C  47,H  53)          116.2356         0.364932   
    430. A(O  27,C  47,H  53)          116.2741         0.365000   
    431. A(O  27,C  47,O  28)          127.4903         0.466296   
    432. A(H  71,Al 60,Al 72)          103.6724         0.285236   
    433. A(H  65,Al 60,Al 72)          122.5266         0.285237   
    434. A(H  64,Al 60,Al 72)           99.4193         0.273639   
    435. A(Al 61,Al 60,Al 72)           94.0868         0.220990   
    436. A(H  66,Al 60,H  71)          107.4607         0.364888   
    437. A(H  65,Al 60,H  71)          109.9333         0.382372   
    438. A(H  64,Al 60,H  71)          107.7109         0.365032   
    439. A(Al 61,Al 60,H  71)          101.5487         0.286323   
    440. A(H  65,Al 60,H  66)          113.6060         0.364890   
    441. A(H  64,Al 60,H  66)          105.5063         0.348584   
    442. A(Al 61,Al 60,H  66)          101.0783         0.274564   
    443. A(H  64,Al 60,H  65)          112.3047         0.365034   
    444. A(Al 61,Al 60,H  65)          121.7902         0.286324   
    445. A(Al 61,Al 60,H  64)            9.5817         0.274661   
    446. A(H  66,Al 60,Al 72)            9.0203         0.273542   
    447. A(H  67,Al 61,Al 68)          113.3858         0.282610   
    448. A(H  64,Al 61,Al 68)           90.1208         0.271186   
    449. A(H  63,Al 61,Al 68)          117.4094         0.282634   
    450. A(H  62,Al 61,Al 68)            7.1879         0.271093   
    451. A(Al 60,Al 61,Al 68)           82.1716         0.219310   
    452. A(H  64,Al 61,H  67)          109.4002         0.364691   
    453. A(H  63,Al 61,H  67)          110.9455         0.382015   
    454. A(H  62,Al 61,H  67)          111.9942         0.364550   
    455. A(Al 60,Al 61,H  67)          107.6608         0.286191   
    456. A(H  63,Al 61,H  64)          113.8797         0.364726   
    457. A(H  62,Al 61,H  64)           97.1610         0.348292   
    458. A(Al 60,Al 61,H  64)            9.5777         0.274556   
    459. A(H  62,Al 61,H  63)          112.7754         0.364585   
    460. A(Al 60,Al 61,H  63)          122.4123         0.286216   
    461. A(Al 60,Al 61,H  62)           89.3174         0.274461   
    462. A(Al 61,H  62,Al 68)          165.6234         0.348195   
    463. A(Al 60,H  64,Al 61)          160.8406         0.348572   
    464. A(Al 60,H  66,Al 72)          161.9637         0.348276   
    465. A(Al 72,Al 68,H  75)          109.2164         0.282640   
    466. A(H  70,Al 68,H  75)          111.9121         0.381944   
    467. A(H  69,Al 68,H  75)          110.3577         0.364594   
    468. A(H  62,Al 68,H  75)          110.0931         0.364555   
    469. A(Al 61,Al 68,H  75)          109.5043         0.282586   
    470. A(H  70,Al 68,Al 72)          116.4602         0.282664   
    471. A(H  69,Al 68,Al 72)            7.1108         0.271194   
    472. A(H  62,Al 68,Al 72)           99.7521         0.271168   
    473. A(Al 61,Al 68,Al 72)           93.3998         0.216979   
    474. A(H  69,Al 68,H  70)          110.1094         0.364629   
    475. A(H  62,Al 68,H  70)          108.6756         0.364590   
    476. A(Al 61,Al 68,H  70)          114.8900         0.282611   
    477. A(H  62,Al 68,H  69)          105.4808         0.348268   
    478. A(Al 61,Al 68,H  69)           99.3845         0.271143   
    479. A(Al 61,Al 68,H  62)            7.1887         0.271118   
    480. A(Al 68,H  69,Al 72)          165.7767         0.348388   
    481. A(O  33,Al 72,H  74)          126.2569         0.199821   
    482. A(O  33,Al 72,H  73)           57.6328         0.199738   
    483. A(O  33,Al 72,H  69)          121.2321         0.193216   
    484. A(O  33,Al 72,Al 68)          118.3881         0.162201   
    485. A(O  33,Al 72,H  66)           55.9045         0.193142   
    486. A(O  33,Al 72,Al 60)           63.1255         0.163124   
    487. A(O  35,Al 72,H  74)          166.2741         0.202770   
    488. A(O  35,Al 72,H  73)           55.1509         0.202685   
    489. A(O  35,Al 72,H  69)           78.7152         0.195990   
    490. A(O  35,Al 72,Al 68)           78.6216         0.164149   
    491. A(O  35,Al 72,H  66)           76.6760         0.195913   
    492. A(O  35,Al 72,Al 60)           77.6553         0.165097   
    493. A(H  73,Al 72,H  74)          111.3702         0.382183   
    494. A(H  69,Al 72,H  74)          111.5305         0.364917   
    495. A(Al 68,Al 72,H  74)          112.7157         0.282803   
    496. A(H  66,Al 72,H  74)          109.7935         0.364720   
    497. A(Al 60,Al 72,H  74)          110.7043         0.285247   
    498. A(H  69,Al 72,H  73)          112.4406         0.364710   
    499. A(Al 68,Al 72,H  73)          117.1896         0.282658   
    500. A(H  66,Al 72,H  73)          113.3945         0.364514   
    501. A(Al 60,Al 72,H  73)          119.8551         0.285100   
    502. A(Al 68,Al 72,H  69)            7.1125         0.271253   
    503. A(H  66,Al 72,H  69)           97.6021         0.348288   
    504. A(Al 60,Al 72,H  69)           89.0590         0.273551   
    505. A(H  66,Al 72,Al 68)           90.6933         0.271123   
    506. A(Al 60,Al 72,Al 68)           82.0766         0.218628   
    507. A(O  33,Al 72,O  35)           46.7221         0.131972   
    508. A(Al 60,Al 72,H  66)            9.0160         0.273419   
    509. D(Zr  5,Zr  2,Zr  1,O   7)    122.9125         0.010000   
    510. D(Zr  5,Zr  2,Zr  1,Zr  4)    103.3536         0.010000   
    511. D(O   7,Zr  2,Zr  1,Zr  4)    -19.5589         0.010000   
    512. D(Zr  4,Zr  3,Zr  0,O   6)   -122.5045         0.010000   
    513. D(O   6,Zr  3,Zr  0,Zr  5)     20.1487         0.010000   
    514. D(Zr  4,Zr  3,Zr  0,Zr  5)   -102.3558         0.010000   
    515. D(Zr  3,Zr  4,Zr  1,Zr  2)   -105.2200         0.010000   
    516. D(Zr  1,Zr  4,Zr  3,O   6)     75.1476         0.010000   
    517. D(Zr  3,Zr  4,Zr  1,O   7)   -123.7265         0.010000   
    518. D(Zr  1,Zr  4,Zr  3,Zr  0)    104.3632         0.010000   
    519. D(O   7,Zr  4,Zr  1,Zr  2)     18.5065         0.010000   
    520. D(O   7,Zr  4,Zr  3,Zr  0)     74.6968         0.010000   
    521. D(Zr  2,Zr  5,Zr  0,Zr  3)    104.2091         0.010000   
    522. D(Zr  2,Zr  5,Zr  0,O   6)    123.2894         0.010000   
    523. D(O   6,Zr  5,Zr  2,Zr  1)    -75.3658         0.010000   
    524. D(Zr  0,Zr  5,Zr  2,O   7)    -76.5776         0.010000   
    525. D(Zr  0,Zr  5,Zr  2,Zr  1)   -105.4427         0.010000   
    526. D(O   6,Zr  5,Zr  0,Zr  3)    -19.0803         0.010000   
    527. D(Zr  3,O   6,Zr  0,O   9)    -21.1898         0.010000   
    528. D(Zr  5,O   6,Zr  3,Zr  0)   -134.9856         0.010000   
    529. D(Zr  3,O   6,Zr  5,Zr  0)    136.0770         0.010000   
    530. D(Zr  0,O   6,Zr  5,Zr  2)    -52.7741         0.010000   
    531. D(Zr  0,O   6,Zr  3,O   9)     21.4565         0.010000   
    532. D(Zr  5,O   6,Zr  0,Zr  3)    148.2743         0.010000   
    533. D(Zr  0,O   6,Zr  5,O   8)    -89.8502         0.010000   
    534. D(Zr  0,O   6,Zr  3,Zr  4)     53.0221         0.010000   
    535. D(Zr  3,O   6,Zr  0,Zr  5)   -148.2743         0.010000   
    536. D(Zr  2,O   7,Zr  1,O   8)     20.7579         0.010000   
    537. D(Zr  1,O   7,Zr  2,Zr  5)    -52.1764         0.010000   
    538. D(Zr  2,O   7,Zr  1,Zr  4)    149.0299         0.010000   
    539. D(Zr  4,O   7,Zr  1,Zr  2)   -149.0299         0.010000   
    540. D(Zr  2,O   7,Zr  4,Zr  1)   -138.1212         0.010000   
    541. D(Zr  1,O   7,Zr  4,O   9)     90.2823         0.010000   
    542. D(Zr  1,O   7,Zr  4,Zr  3)     52.5353         0.010000   
    543. D(Zr  1,O   7,Zr  2,O   8)    -20.9423         0.010000   
    544. D(Zr  4,O   7,Zr  2,Zr  1)    137.0778         0.010000   
    545. D(Zr  2,O   8,Zr  5,Zr  0)     48.5128         0.010000   
    546. D(Zr  1,O   8,Zr  5,Zr  2)   -128.7346         0.010000   
    547. D(Zr  1,O   8,Zr  5,Zr  0)    -80.2218         0.010000   
    548. D(Zr  1,O   8,Zr  2,O   7)     19.9870         0.010000   
    549. D(Zr  5,O   8,Zr  2,Zr  1)   -142.3190         0.010000   
    550. D(Zr  5,O   8,Zr  1,Zr  2)    128.2323         0.010000   
    551. D(Zr  1,O   8,Zr  2,Zr  5)    142.3190         0.010000   
    552. D(Zr  2,O   8,Zr  1,O   7)    -20.1731         0.010000   
    553. D(Zr  2,O   8,Zr  1,Zr  4)    -48.9417         0.010000   
    554. D(Zr  3,O   9,Zr  4,Zr  1)    -50.2175         0.010000   
    555. D(Zr  0,O   9,Zr  4,Zr  3)    128.6134         0.010000   
    556. D(Zr  0,O   9,Zr  4,Zr  1)     78.3960         0.010000   
    557. D(Zr  0,O   9,Zr  3,O   6)    -20.5520         0.010000   
    558. D(Zr  4,O   9,Zr  3,Zr  0)    143.4885         0.010000   
    559. D(Zr  0,O   9,Zr  3,Zr  4)   -143.4885         0.010000   
    560. D(Zr  3,O   9,Zr  0,O   6)     20.8715         0.010000   
    561. D(Zr  3,O   9,Zr  0,Zr  5)     50.5526         0.010000   
    562. D(Zr  4,O   9,Zr  0,Zr  3)   -127.7256         0.010000   
    563. D(Zr  1,O  10,Zr  4,O   7)    -31.2682         0.010000   
    564. D(Zr  1,O  10,Zr  4,Zr  3)   -173.3293         0.010000   
    565. D(Zr  4,O  10,Zr  3,Zr  0)    -64.2049         0.010000   
    566. D(Zr  1,O  10,Zr  3,Zr  4)    168.6489         0.010000   
    567. D(Zr  1,O  10,Zr  3,Zr  0)    104.4440         0.010000   
    568. D(Zr  4,O  10,Zr  1,Zr  2)     62.9657         0.010000   
    569. D(Zr  3,O  10,Zr  1,Zr  4)   -168.7264         0.010000   
    570. D(Zr  3,O  10,Zr  4,Zr  1)    173.3293         0.010000   
    571. D(Zr  3,O  10,Zr  1,Zr  2)   -105.7607         0.010000   
    572. D(Zr  2,O  11,Zr  5,Zr  0)   -171.1476         0.010000   
    573. D(Zr  0,O  11,Zr  5,Zr  2)    171.1476         0.010000   
    574. D(Zr  5,O  11,Zr  2,Zr  1)     61.7546         0.010000   
    575. D(Zr  0,O  11,Zr  2,Zr  5)   -165.5385         0.010000   
    576. D(Zr  0,O  11,Zr  2,Zr  1)   -103.7839         0.010000   
    577. D(Zr  5,O  11,Zr  0,Zr  3)    -63.2557         0.010000   
    578. D(Zr  0,O  11,Zr  5,O   6)     30.9553         0.010000   
    579. D(Zr  2,O  11,Zr  0,Zr  5)    165.7103         0.010000   
    580. D(Zr  2,O  11,Zr  0,Zr  3)    102.4546         0.010000   
    581. D(C  36,O  12,Zr  0,Zr  5)     19.8694         0.010000   
    582. D(C  36,O  12,Zr  0,Zr  3)     84.9619         0.010000   
    583. D(C  37,O  13,Zr  0,Zr  5)    -12.8265         0.010000   
    584. D(C  37,O  13,Zr  0,Zr  3)     33.5107         0.010000   
    585. D(C  38,O  14,Zr  0,Zr  5)     65.5225         0.010000   
    586. D(C  38,O  14,Zr  0,Zr  3)     31.1742         0.010000   
    587. D(C  39,O  15,Zr  0,Zr  5)     63.6876         0.010000   
    588. D(C  39,O  15,Zr  0,Zr  3)    -21.1370         0.010000   
    589. D(C  40,O  16,Zr  1,Zr  4)    -72.3595         0.010000   
    590. D(C  40,O  16,Zr  1,Zr  2)     11.1022         0.010000   
    591. D(C  41,O  17,Zr  1,Zr  4)    -56.0798         0.010000   
    592. D(C  41,O  17,Zr  1,Zr  2)    -23.9629         0.010000   
    593. D(C  42,O  18,Zr  1,Zr  4)     14.3006         0.010000   
    594. D(C  42,O  18,Zr  1,Zr  2)    -32.2099         0.010000   
    595. D(C  43,O  19,Zr  1,Zr  4)    -27.1269         0.010000   
    596. D(C  43,O  19,Zr  1,Zr  2)    -90.6772         0.010000   
    597. D(C  44,O  20,Zr  2,Zr  5)     -5.0707         0.010000   
    598. D(C  44,O  20,Zr  2,Zr  1)    -68.4176         0.010000   
    599. D(C  38,O  21,Zr  2,Zr  5)    -46.4428         0.010000   
    600. D(C  38,O  21,Zr  2,Zr  1)     -3.7000         0.010000   
    601. D(C  42,O  22,Zr  2,Zr  5)     14.8150         0.010000   
    602. D(C  42,O  22,Zr  2,Zr  1)    -31.8154         0.010000   
    603. D(C  45,O  23,Zr  2,Zr  5)    -80.4647         0.010000   
    604. D(C  45,O  23,Zr  2,Zr  1)     -2.9416         0.010000   
    605. D(C  46,O  24,Zr  3,Zr  4)     80.0546         0.010000   
    606. D(C  46,O  24,Zr  3,Zr  0)     -0.7015         0.010000   
    607. D(C  37,O  25,Zr  3,Zr  0)     32.4592         0.010000   
    608. D(C  37,O  25,Zr  3,Zr  4)    -14.3640         0.010000   
    609. D(C  41,O  26,Zr  3,Zr  4)     50.8935         0.010000   
    610. D(C  41,O  26,Zr  3,Zr  0)     12.2960         0.010000   
    611. D(C  47,O  27,Zr  3,Zr  4)      3.8030         0.010000   
    612. D(C  47,O  27,Zr  3,Zr  0)     68.2834         0.010000   
    613. D(C  47,O  28,Zr  4,Zr  3)      4.0412         0.010000   
    614. D(C  47,O  28,Zr  4,Zr  1)     56.2854         0.010000   
    615. D(C  39,O  29,Zr  4,Zr  3)     40.9194         0.010000   
    616. D(C  39,O  29,Zr  4,Zr  1)    -42.8869         0.010000   
    617. D(C  43,O  30,Zr  4,Zr  3)    -96.7093         0.010000   
    618. D(C  43,O  30,Zr  4,Zr  1)    -33.5514         0.010000   
    619. D(C  45,O  31,Zr  4,Zr  3)    -21.1520         0.010000   
    620. D(C  45,O  31,Zr  4,Zr  1)    -73.6302         0.010000   
    621. D(C  46,O  32,Zr  5,Zr  2)      2.4516         0.010000   
    622. D(C  46,O  32,Zr  5,Zr  0)     67.2266         0.010000   
    623. D(Al 72,O  33,Zr  5,Zr  0)   -153.7127         0.010000   
    624. D(C  36,O  33,Zr  5,Zr  2)     87.0934         0.010000   
    625. D(C  36,O  33,Zr  5,Zr  0)     27.8498         0.010000   
    626. D(C  40,O  34,Zr  5,Zr  2)    -54.6690         0.010000   
    627. D(C  40,O  34,Zr  5,Zr  0)     24.3597         0.010000   
    628. D(Al 72,O  35,Zr  5,Zr  0)     91.7003         0.010000   
    629. D(C  44,O  35,Zr  5,Zr  2)    -15.5282         0.010000   
    630. D(C  44,O  35,Zr  5,Zr  0)    -71.0522         0.010000   
    631. D(H  58,C  36,O  33,Zr  5)    155.6066         0.071650   
    632. D(O  12,C  36,O  33,Al 72)    156.2868         0.071650   
    633. D(O  12,C  36,O  33,Zr  5)    -25.4042         0.071650   
    634. D(H  58,C  36,O  12,Zr  0)    169.4129         0.060485   
    635. D(O  33,C  36,O  12,Zr  0)     -9.5770         0.060485   
    636. D(H  51,C  37,O  25,Zr  3)    157.1901         0.045577   
    637. D(O  13,C  37,O  25,Zr  3)    -22.7954         0.045577   
    638. D(H  51,C  37,O  13,Zr  0)    154.5708         0.045535   
    639. D(O  25,C  37,O  13,Zr  0)    -25.4437         0.045535   
    640. D(H  50,C  38,O  21,Zr  2)   -173.8462         0.065766   
    641. D(O  14,C  38,O  21,Zr  2)      7.8458         0.065766   
    642. D(H  50,C  38,O  14,Zr  0)    160.7205         0.061644   
    643. D(O  21,C  38,O  14,Zr  0)    -20.9721         0.061644   
    644. D(H  54,C  39,O  29,Zr  4)    179.7203         0.048259   
    645. D(O  15,C  39,O  29,Zr  4)      0.6253         0.048259   
    646. D(H  54,C  39,O  15,Zr  0)    167.1980         0.048357   
    647. D(O  29,C  39,O  15,Zr  0)    -13.7075         0.048357   
    648. D(H  56,C  40,O  34,Zr  5)   -171.8196         0.047933   
    649. D(O  16,C  40,O  34,Zr  5)      7.3028         0.047933   
    650. D(H  56,C  40,O  16,Zr  1)   -159.0718         0.047706   
    651. D(O  34,C  40,O  16,Zr  1)     21.8063         0.047706   
    652. D(H  48,C  41,O  26,Zr  3)    175.7456         0.047716   
    653. D(O  17,C  41,O  26,Zr  3)     -5.4146         0.047716   
    654. D(H  48,C  41,O  17,Zr  1)   -171.9684         0.047704   
    655. D(O  26,C  41,O  17,Zr  1)      9.1917         0.047704   
    656. D(H  49,C  42,O  22,Zr  2)   -157.2203         0.045644   
    657. D(O  18,C  42,O  22,Zr  2)     22.8599         0.045644   
    658. D(H  49,C  42,O  18,Zr  1)   -155.9713         0.045624   
    659. D(O  22,C  42,O  18,Zr  1)     23.9485         0.045624   
    660. D(H  52,C  43,O  30,Zr  4)   -152.5693         0.045810   
    661. D(O  19,C  43,O  30,Zr  4)     28.1577         0.045810   
    662. D(H  52,C  43,O  19,Zr  1)   -163.2365         0.046139   
    663. D(O  30,C  43,O  19,Zr  1)     16.0368         0.046139   
    664. D(H  59,C  44,O  35,Zr  5)   -161.2563         0.072611   
    665. D(O  20,C  44,O  35,Al 72)   -143.4598         0.072611   
    666. D(O  20,C  44,O  35,Zr  5)     18.8487         0.072611   
    667. D(H  59,C  44,O  20,Zr  2)    176.7542         0.061188   
    668. D(O  35,C  44,O  20,Zr  2)     -3.3507         0.061188   
    669. D(H  55,C  45,O  31,Zr  4)   -165.0189         0.046934   
    670. D(O  23,C  45,O  31,Zr  4)     14.0468         0.046934   
    671. D(H  55,C  45,O  23,Zr  2)   -144.0108         0.046160   
    672. D(O  31,C  45,O  23,Zr  2)     36.9251         0.046160   
    673. D(H  57,C  46,O  32,Zr  5)    166.8552         0.047478   
    674. D(O  24,C  46,O  32,Zr  5)    -12.2168         0.047478   
    675. D(H  57,C  46,O  24,Zr  3)    148.6309         0.046908   
    676. D(O  32,C  46,O  24,Zr  3)    -32.2981         0.046908   
    677. D(H  53,C  47,O  28,Zr  4)    176.9824         0.046994   
    678. D(O  27,C  47,O  28,Zr  4)     -3.0508         0.046994   
    679. D(H  53,C  47,O  27,Zr  3)    177.2597         0.047108   
    680. D(O  28,C  47,O  27,Zr  3)     -2.7071         0.047108   
    681. D(H  63,Al 61,Al 60,H  64)    -28.2628         0.010000   
    682. D(H  62,Al 61,Al 60,H  65)   -153.5717         0.010000   
    683. D(H  62,Al 61,Al 60,H  64)   -145.0723         0.010000   
    684. D(Al 68,H  62,Al 61,H  63)   -131.3825         0.010000   
    685. D(Al 68,H  62,Al 61,Al 60)     -6.1866         0.010000   
    686. D(Al 60,H  64,Al 61,H  63)    154.0764         0.010000   
    687. D(Al 60,H  64,Al 61,H  62)     35.2400         0.010000   
    688. D(Al 61,H  64,Al 60,H  66)    -63.5409         0.010000   
    689. D(Al 61,H  64,Al 60,H  65)    172.1959         0.010000   
    690. D(Al 72,H  66,Al 60,H  64)     48.3620         0.010000   
    691. D(Al 72,H  66,Al 60,Al 61)     39.6279         0.010000   
    692. D(H  70,Al 68,H  62,Al 61)    150.5049         0.010000   
    693. D(H  69,Al 68,H  62,Al 61)     32.4575         0.010000   
    694. D(H  69,Al 68,Al 61,Al 60)     25.3711         0.010000   
    695. D(H  62,Al 68,Al 61,H  63)     51.1960         0.010000   
    696. D(H  62,Al 68,Al 61,Al 60)    173.7554         0.010000   
    697. D(Al 72,H  69,Al 68,H  62)    -36.8393         0.010000   
    698. D(Al 72,H  69,Al 68,Al 61)    -32.9363         0.010000   
    699. D(H  66,Al 72,H  69,Al 68)     13.8244         0.010000   
    700. D(Al 60,Al 72,H  69,Al 68)     10.9351         0.010000   
    701. D(H  66,Al 72,Al 68,Al 61)    -18.8036         0.010000   
    702. D(Al 60,Al 72,Al 68,Al 61)    -21.4648         0.010000   
    703. D(H  69,Al 72,H  66,Al 60)    -18.7603         0.010000   
    704. D(Al 68,Al 72,H  66,Al 60)    -17.0648         0.010000   
    705. D(Al 68,Al 72,Al 60,Al 61)     21.6336         0.010000   
    706. D(H  66,Al 72,Al 60,H  64)   -133.1139         0.010000   
    707. D(H  66,Al 72,Al 60,Al 61)   -141.1333         0.010000   
    708. D(H  66,Al 72,O  35,Zr  5)    -78.4693         0.010000   
    709. D(Al 60,Al 72,O  35,C  44)     78.6929         0.010000   
    710. D(Al 60,Al 72,Al 68,H  62)    -24.8541         0.010000   
    711. D(Al 60,Al 72,O  35,Zr  5)    -87.6621         0.010000   
    712. D(H  66,Al 72,O  33,Zr  5)    127.6979         0.010000   
    713. D(Al 60,Al 72,O  33,C  36)    -59.9259         0.010000   
    714. D(Al 60,Al 72,O  33,Zr  5)    121.4240         0.010000   
    -----------------------------------------------------------------

Number of atoms                         .... 76
Number of degrees of freedom            .... 714


         *************************************************************
         *                GEOMETRY OPTIMIZATION CYCLE   1            *
         *************************************************************
---------------------------------
CARTESIAN COORDINATES (ANGSTROEM)
---------------------------------
  Zr    -0.338190    1.946054    1.623566
  Zr     0.237467   -2.222797   -1.538095
  Zr     1.678486   -1.493227    1.486943
  Zr    -1.718359    1.254888   -1.440453
  Zr     1.638330    0.859947   -1.643006
  Zr    -1.707862   -1.145076    1.705246
  O     -1.723256    0.734062    0.623319
  O      1.631540   -1.005542   -0.564921
  O     -0.140994   -2.128184    0.575965
  O      0.091243    1.854528   -0.486050
  O     -0.222379   -0.166824   -1.613387
  O      0.131453   -0.108192    1.707963
  O     -1.874833    2.108302    2.867384
  O     -1.161280    3.618723    0.898754
  O      0.660934    1.526313    3.382755
  O      1.401384    2.890942    1.399543
  O     -1.500601   -3.161854   -1.267362
  O     -0.767798   -1.797390   -3.296583
  O      1.083655   -3.886573   -0.833196
  O      1.746498   -2.358294   -2.830285
  O      1.128111   -2.888233    2.766393
  O      1.990306   -0.406582    3.202582
  O      2.651028   -3.038270    0.674112
  O      3.401598   -0.485968    1.043459
  O     -3.414898    0.206784   -1.095201
  O     -2.712866    2.778503   -0.628004
  O     -1.962656    0.227092   -3.216404
  O     -1.129400    2.664801   -2.693017
  O      1.163979    2.313747   -2.896741
  O      2.490365    2.390708   -0.608481
  O      2.021166   -0.103907   -3.336220
  O      3.561186    0.251714   -1.184193
  O     -3.614248   -0.675527    1.071118
  O     -2.315991   -0.135096    3.296698
  O     -2.462271   -2.836170    0.843035
  O     -1.136111   -2.449550    3.081223
  C     -2.478751    1.140643    3.490147
  C     -2.229627    3.697688    0.157936
  C      1.593602    0.701813    3.747823
  C      2.312354    3.049312    0.492676
  C     -2.321496   -3.430683   -0.300151
  C     -1.584787   -0.895389   -3.744437
  C      2.156324   -3.962207   -0.098718
  C      2.221700   -1.374442   -3.536290
  C     -0.044627   -3.128344    3.268695
  C      4.033630   -0.139327   -0.039342
  C     -4.065746   -0.251048   -0.068670
  C      0.049356    2.919755   -3.173809
  H     -2.005431   -1.104959   -4.721976
  H      2.703484   -4.906330   -0.135840
  H      2.106092    0.968231    4.666519
  H     -2.781264    4.639163    0.200346
  H      2.844439   -1.643227   -4.392009
  H      0.110721    3.736175   -3.893341
  H      3.035845    3.834979    0.688780
  H      5.118663   -0.167674    0.026593
  H     -2.995581   -4.264035   -0.477761
  H     -5.145074   -0.298431   -0.185718
  H     -3.186524    1.429744    4.268792
  H     -0.120556   -3.996850    3.922662
  Al    -0.731248    0.005189    6.363495
  Al     1.747777   -2.151949    6.181012
  H      0.662869   -3.391526    6.454481
  H      2.602911   -2.361771    4.849957
  H      0.630299   -0.916216    6.078492
  H     -0.675825    1.414220    5.617545
  H     -2.020293   -0.947454    5.897709
  H      2.699905   -1.902831    7.437542
  Al    -0.688600   -4.314462    6.785417
  H     -1.980834   -3.442791    6.187456
  H     -0.559796   -5.704860    6.012336
  H     -0.845397    0.228009    7.939005
  Al    -3.051969   -2.249211    5.724890
  H     -3.577221   -2.447592    4.230794
  H     -4.263456   -2.118742    6.754438
  H     -0.839414   -4.520710    8.361062

----------------------------
CARTESIAN COORDINATES (A.U.)
----------------------------
  NO LB      ZA    FRAG     MASS         X           Y           Z
   0 Zr   12.0000*   0    91.220   -0.639086    3.677510    3.068095
   1 Zr   12.0000*   0    91.220    0.448748   -4.200477   -2.906579
   2 Zr   12.0000*   0    91.220    3.171878   -2.821791    2.809914
   3 Zr   12.0000*   0    91.220   -3.247228    2.371395   -2.722062
   4 Zr   12.0000*   0    91.220    3.095994    1.625064   -3.104830
   5 Zr   12.0000*   0    91.220   -3.227391   -2.163880    3.222447
   6 O     8.0000    0    15.999   -3.256482    1.387176    1.177903
   7 O     8.0000    0    15.999    3.083165   -1.900200   -1.067545
   8 O     8.0000    0    15.999   -0.266440   -4.021686    1.088417
   9 O     8.0000    0    15.999    0.172425    3.504550   -0.918502
  10 O     8.0000    0    15.999   -0.420235   -0.315251   -3.048860
  11 O     8.0000    0    15.999    0.248410   -0.204454    3.227581
  12 O     8.0000    0    15.999   -3.542920    3.984114    5.418571
  13 O     8.0000    0    15.999   -2.194500    6.838395    1.698399
  14 O     8.0000    0    15.999    1.248984    2.884313    6.392480
  15 O     8.0000    0    15.999    2.648231    5.463088    2.644752
  16 O     8.0000    0    15.999   -2.835725   -5.975039   -2.394966
  17 O     8.0000    0    15.999   -1.450927   -3.396575   -6.229638
  18 O     8.0000    0    15.999    2.047811   -7.344558   -1.574512
  19 O     8.0000    0    15.999    3.300403   -4.456530   -5.348464
  20 O     8.0000    0    15.999    2.131822   -5.457970    5.227724
  21 O     8.0000    0    15.999    3.761133   -0.768328    6.052003
  22 O     8.0000    0    15.999    5.009717   -5.741498    1.273887
  23 O     8.0000    0    15.999    6.428089   -0.918346    1.971851
  24 O     8.0000    0    15.999   -6.453222    0.390766   -2.069630
  25 O     8.0000    0    15.999   -5.126575    5.250609   -1.186756
  26 O     8.0000    0    15.999   -3.708883    0.429142   -6.078122
  27 O     8.0000    0    15.999   -2.134256    5.035743   -5.089065
  28 O     8.0000    0    15.999    2.199602    4.372349   -5.474047
  29 O     8.0000    0    15.999    4.706108    4.517782   -1.149863
  30 O     8.0000    0    15.999    3.819449   -0.196356   -6.304543
  31 O     8.0000    0    15.999    6.729667    0.475671   -2.237800
  32 O     8.0000    0    15.999   -6.829938   -1.276561    2.024120
  33 O     8.0000    0    15.999   -4.376588   -0.255295    6.229856
  34 O     8.0000    0    15.999   -4.653018   -5.359584    1.593105
  35 O     8.0000    0    15.999   -2.146938   -4.628978    5.822668
  36 C     6.0000    0    12.011   -4.684161    2.155503    6.595422
  37 C     6.0000    0    12.011   -4.213384    6.987617    0.298455
  38 C     6.0000    0    12.011    3.011472    1.326235    7.082360
  39 C     6.0000    0    12.011    4.369716    5.762365    0.931023
  40 C     6.0000    0    12.011   -4.386992   -6.483052   -0.567202
  41 C     6.0000    0    12.011   -2.994814   -1.692040   -7.075960
  42 C     6.0000    0    12.011    4.074862   -7.487485   -0.186550
  43 C     6.0000    0    12.011    4.198405   -2.597319   -6.682620
  44 C     6.0000    0    12.011   -0.084333   -5.911713    6.176939
  45 C     6.0000    0    12.011    7.622456   -0.263289   -0.074345
  46 C     6.0000    0    12.011   -7.683147   -0.474412   -0.129768
  47 C     6.0000    0    12.011    0.093270    5.517537   -5.997630
  48 H     1.0000    0     1.008   -3.789716   -2.088071   -8.923241
  49 H     1.0000    0     1.008    5.108843   -9.271621   -0.256701
  50 H     1.0000    0     1.008    3.979937    1.829692    8.818444
  51 H     1.0000    0     1.008   -5.255828    8.766747    0.378599
  52 H     1.0000    0     1.008    5.375211   -3.105250   -8.299693
  53 H     1.0000    0     1.008    0.209232    7.060347   -7.357348
  54 H     1.0000    0     1.008    5.736915    7.247059    1.301605
  55 H     1.0000    0     1.008    9.672872   -0.316858    0.050253
  56 H     1.0000    0     1.008   -5.660828   -8.057858   -0.902837
  57 H     1.0000    0     1.008   -9.722782   -0.563952   -0.350956
  58 H     1.0000    0     1.008   -6.021658    2.701825    8.066848
  59 H     1.0000    0     1.008   -0.227819   -7.552951    7.412757
  60 Al   13.0000    0    26.982   -1.381859    0.009807   12.025263
  61 Al   13.0000    0    26.982    3.302820   -4.066595   11.680421
  62 H     1.0000    0     1.008    1.252641   -6.409056   12.197201
  63 H     1.0000    0     1.008    4.918789   -4.463100    9.165090
  64 H     1.0000    0     1.008    1.191093   -1.731397   11.486685
  65 H     1.0000    0     1.008   -1.277124    2.672489   10.615621
  66 H     1.0000    0     1.008   -3.817800   -1.790428   11.145055
  67 H     1.0000    0     1.008    5.102081   -3.595830   14.054917
  68 Al   13.0000    0    26.982   -1.301265   -8.153152   12.822580
  69 H     1.0000    0     1.008   -3.743234   -6.505931   11.692597
  70 H     1.0000    0     1.008   -1.057861  -10.780624   11.361669
  71 H     1.0000    0     1.008   -1.597569    0.430874   15.002546
  72 Al   13.0000    0    26.982   -5.767385   -4.250392   10.818473
  73 H     1.0000    0     1.008   -6.759968   -4.625279    7.995043
  74 H     1.0000    0     1.008   -8.056765   -4.003842   12.764037
  75 H     1.0000    0     1.008   -1.586263   -8.542904   15.800116
* core charge reduced due to ECP

--------------------------------
INTERNAL COORDINATES (ANGSTROEM)
--------------------------------
 Zr     0   0   0     0.000000000000     0.00000000     0.00000000
 Zr     1   0   0     5.263725307445     0.00000000     0.00000000
 Zr     2   1   0     3.429236381038    49.27763775     0.00000000
 Zr     1   2   3     3.430858423796    49.30859083   178.19747406
 Zr     4   1   2     3.385906941601    71.22301150   308.47012502
 Zr     1   2   3     3.381975765628    48.31092164   279.20829783
 O      1   2   3     2.094713937616    47.72038091   226.87960642
 O      2   1   3     2.090985110680    48.11062012   312.19844422
 O      3   2   1     2.131561984493    36.95881795    74.46601922
 O      4   1   2     2.131927500032    37.06731179   285.40557402
 O      4   1   2     2.071021040698    85.54276867   343.15683432
 O      3   2   1     2.088176914693    85.59312222    17.65781543
 O      1   2   3     1.983602759800   121.74500410   261.23254809
 O      1   2   3     2.000162047178   119.31839208   163.66326646
 O      1   2   3     2.066198608146   107.31516014   352.21561192
 O      1   2   3     1.992263691631   102.27439202    71.91145221
 O      2   1   3     1.993992394190   101.30932000   107.11980294
 O      2   1   3     2.069735620825   107.12292575   187.69425801
 O      2   1   3     1.995261260408   119.64308586    15.37225915
 O      2   1   3     1.991302987265   121.77195690   276.68896686
 O      3   2   1     1.971280001557   107.73801383   117.99626353
 O      3   2   1     2.054616311011   155.90758867     4.85431070
 O      3   2   1     1.998421277466    71.41093191   192.29057526
 O      3   2   1     2.044594414845   105.52232801   269.46108313
 O      4   1   2     2.023848670196   106.81002543    87.83179048
 O      4   1   2     1.992616152297    71.49448091   166.15393277
 O      4   1   2     2.066409036063   156.24885551   349.68569984
 O      4   1   2     1.975764081914   107.60796611   241.12401013
 O      5   4   1     1.977471901569    73.40331954   242.23567661
 O      5   4   1     2.034559647007   107.27689389   318.63874747
 O      5   4   1     1.985586657713   107.38425772   166.33998992
 O      5   4   1     2.068292545927   160.50862920    48.47613650
 O      6   1   2     2.063226081352    99.13573672   254.07622563
 O      6   1   2     1.980555425282    71.19587828   176.68218073
 O      6   1   2     2.042630130762   153.64796409   325.40489408
 O      6   1   2     1.980369800901   120.12647400   107.84119690
 C     13   1   2     1.299582757422   126.83924876    33.65476126
 C     26   4   1     1.302352951454   126.90799980    32.45920576
 C     15   1   2     1.297283705129   135.75440405    19.94474400
 C     16   1   2     1.295127295095   138.66848908    29.74389811
 C     35   6   1     1.296201105507   135.38893239    24.35972679
 C     27   4   1     1.296753104198   138.24929228    12.29597196
 C     23   3   2     1.302174260252   127.23422018   328.18458353
 C     20   2   1     1.300855824618   125.27824634   320.71232596
 C     21   3   2     1.298182322930   129.36366729   291.58242061
 C     32   5   4     1.298768457497   128.48196479   338.84796647
 C     33   6   1     1.297362793999   131.76189568    67.22657681
 C     28   4   1     1.298317247336   130.20637234    68.28338883
 H     42  27   4     1.084639799356   114.91222494   175.74556768
 H     43  23   3     1.091847507105   116.31664189   202.77970841
 H     39  15   1     1.085185090397   114.94385831   160.72045709
 H     38  26   4     1.092006346266   116.39093204   157.19009213
 H     44  20   2     1.091926315537   116.58236747   196.76345550
 H     48  28   4     1.089969270354   116.27413846   177.25968324
 H     40  16   1     1.085894682059   115.50932964   167.19798335
 H     46  32   5     1.087404444028   115.10432232   194.98112414
 H     41  35   6     1.086467131743   115.37862909   188.18039172
 H     47  33   6     1.086690012469   115.21505205   166.85517077
 H     37  13   1     1.091242487048   116.49174071   169.41285766
 H     45  21   3     1.089835038693   116.26444255   176.75421047
 Al    51  39  15     3.443497697505    87.67378838    73.39905396
 Al    61  51  39     3.291217777827    62.31200439    98.38435578
 H     62  61  51     1.669838459929    89.31735466   202.48476344
 H     62  61  51     1.595928698556   122.41228521   319.29423573
 H     61  51  39     1.668540307324    52.97916264    95.80973384
 H     61  51  39     1.595268544936    59.59668539   282.27064927
 H     61  51  39     1.669167337365   131.17968645    18.21509728
[...]
Pressure            ...     1.00 atm
Total Mass          ...  1303.54 AMU
Quasi RRHO          ...     True
Cut-Off Frequency   ...     1.00 cm^-1

Throughout the following assumptions are being made:
  (1) The electronic state is orbitally nondegenerate
  (2) There are no thermally accessible electronically excited states
  (3) Hindered rotations indicated by low frequency modes are not
      treated as such but are treated as vibrations and this may
      cause some error
  (4) All equations used are the standard statistical mechanics
      equations for an ideal gas
  (5) All vibrations are strictly harmonic

freq.       7.03  E(vib)   ...       0.58 
freq.      22.75  E(vib)   ...       0.56 
freq.      26.92  E(vib)   ...       0.55 
freq.      27.45  E(vib)   ...       0.55 
freq.      33.80  E(vib)   ...       0.55 
freq.      36.74  E(vib)   ...       0.54 
freq.      39.34  E(vib)   ...       0.54 
freq.      49.51  E(vib)   ...       0.52 
freq.      50.71  E(vib)   ...       0.52 
freq.      55.36  E(vib)   ...       0.52 
freq.      59.27  E(vib)   ...       0.51 
freq.      79.52  E(vib)   ...       0.49 
freq.      81.20  E(vib)   ...       0.48 
freq.      90.86  E(vib)   ...       0.47 
freq.      91.76  E(vib)   ...       0.47 
freq.      96.67  E(vib)   ...       0.47 
freq.      99.56  E(vib)   ...       0.46 
freq.     102.49  E(vib)   ...       0.46 
freq.     104.58  E(vib)   ...       0.46 
freq.     106.22  E(vib)   ...       0.45 
freq.     112.51  E(vib)   ...       0.45 
freq.     114.37  E(vib)   ...       0.44 
freq.     115.40  E(vib)   ...       0.44 
freq.     120.77  E(vib)   ...       0.44 
freq.     132.69  E(vib)   ...       0.42 
freq.     137.73  E(vib)   ...       0.42 
freq.     144.02  E(vib)   ...       0.41 
freq.     146.63  E(vib)   ...       0.41 
freq.     150.87  E(vib)   ...       0.40 
freq.     151.69  E(vib)   ...       0.40 
freq.     152.09  E(vib)   ...       0.40 
freq.     153.10  E(vib)   ...       0.40 
freq.     156.34  E(vib)   ...       0.40 
freq.     156.95  E(vib)   ...       0.40 
freq.     160.47  E(vib)   ...       0.39 
freq.     163.73  E(vib)   ...       0.39 
freq.     164.96  E(vib)   ...       0.39 
freq.     166.36  E(vib)   ...       0.39 
freq.     168.24  E(vib)   ...       0.38 
freq.     173.17  E(vib)   ...       0.38 
freq.     174.07  E(vib)   ...       0.38 
freq.     185.60  E(vib)   ...       0.37 
freq.     188.60  E(vib)   ...       0.36 
freq.     188.94  E(vib)   ...       0.36 
freq.     192.57  E(vib)   ...       0.36 
freq.     194.17  E(vib)   ...       0.36 
freq.     199.60  E(vib)   ...       0.35 
freq.     203.51  E(vib)   ...       0.35 
freq.     210.45  E(vib)   ...       0.34 
freq.     211.49  E(vib)   ...       0.34 
freq.     212.10  E(vib)   ...       0.34 
freq.     229.00  E(vib)   ...       0.32 
freq.     231.60  E(vib)   ...       0.32 
freq.     232.34  E(vib)   ...       0.32 
freq.     236.59  E(vib)   ...       0.32 
freq.     242.53  E(vib)   ...       0.31 
freq.     253.04  E(vib)   ...       0.30 
freq.     259.21  E(vib)   ...       0.30 
freq.     261.03  E(vib)   ...       0.30 
freq.     262.24  E(vib)   ...       0.29 
freq.     263.43  E(vib)   ...       0.29 
freq.     265.01  E(vib)   ...       0.29 
freq.     267.81  E(vib)   ...       0.29 
freq.     268.77  E(vib)   ...       0.29 
freq.     270.50  E(vib)   ...       0.29 
freq.     273.70  E(vib)   ...       0.28 
freq.     275.86  E(vib)   ...       0.28 
freq.     277.82  E(vib)   ...       0.28 
freq.     278.65  E(vib)   ...       0.28 
freq.     279.69  E(vib)   ...       0.28 
freq.     281.18  E(vib)   ...       0.28 
freq.     287.70  E(vib)   ...       0.27 
freq.     288.90  E(vib)   ...       0.27 
freq.     291.68  E(vib)   ...       0.27 
freq.     294.21  E(vib)   ...       0.27 
freq.     295.99  E(vib)   ...       0.27 
freq.     303.71  E(vib)   ...       0.26 
freq.     305.95  E(vib)   ...       0.26 
freq.     307.06  E(vib)   ...       0.26 
freq.     310.17  E(vib)   ...       0.26 
freq.     311.69  E(vib)   ...       0.25 
freq.     315.01  E(vib)   ...       0.25 
freq.     316.31  E(vib)   ...       0.25 
freq.     318.27  E(vib)   ...       0.25 
freq.     320.66  E(vib)   ...       0.25 
freq.     324.04  E(vib)   ...       0.25 
freq.     329.36  E(vib)   ...       0.24 
freq.     338.57  E(vib)   ...       0.23 
freq.     340.83  E(vib)   ...       0.23 
freq.     341.33  E(vib)   ...       0.23 
freq.     350.78  E(vib)   ...       0.23 
freq.     352.18  E(vib)   ...       0.23 
freq.     360.01  E(vib)   ...       0.22 
freq.     361.20  E(vib)   ...       0.22 
freq.     372.07  E(vib)   ...       0.21 
freq.     387.03  E(vib)   ...       0.20 
freq.     388.52  E(vib)   ...       0.20 
freq.     395.79  E(vib)   ...       0.20 
freq.     399.68  E(vib)   ...       0.19 
freq.     403.27  E(vib)   ...       0.19 
freq.     404.55  E(vib)   ...       0.19 
freq.     408.02  E(vib)   ...       0.19 
freq.     416.64  E(vib)   ...       0.18 
freq.     418.68  E(vib)   ...       0.18 
freq.     419.20  E(vib)   ...       0.18 
freq.     420.07  E(vib)   ...       0.18 
freq.     423.02  E(vib)   ...       0.18 
freq.     431.64  E(vib)   ...       0.18 
freq.     472.64  E(vib)   ...       0.15 
freq.     479.29  E(vib)   ...       0.15 
freq.     483.50  E(vib)   ...       0.15 
freq.     493.13  E(vib)   ...       0.14 
freq.     505.43  E(vib)   ...       0.14 
freq.     523.31  E(vib)   ...       0.13 
freq.     532.95  E(vib)   ...       0.13 
freq.     539.94  E(vib)   ...       0.12 
freq.     626.61  E(vib)   ...       0.09 
freq.     663.50  E(vib)   ...       0.08 
freq.     666.13  E(vib)   ...       0.08 
freq.     675.09  E(vib)   ...       0.08 
freq.     680.23  E(vib)   ...       0.08 
freq.     686.84  E(vib)   ...       0.07 
freq.     688.03  E(vib)   ...       0.07 
freq.     692.30  E(vib)   ...       0.07 
freq.     694.68  E(vib)   ...       0.07 
freq.     697.02  E(vib)   ...       0.07 
freq.     706.81  E(vib)   ...       0.07 
freq.     710.83  E(vib)   ...       0.07 
freq.     726.52  E(vib)   ...       0.06 
freq.     728.45  E(vib)   ...       0.06 
freq.     733.56  E(vib)   ...       0.06 
freq.     733.72  E(vib)   ...       0.06 
freq.     734.17  E(vib)   ...       0.06 
freq.     735.34  E(vib)   ...       0.06 
freq.     737.30  E(vib)   ...       0.06 
freq.     738.92  E(vib)   ...       0.06 
freq.     739.63  E(vib)   ...       0.06 
freq.     739.78  E(vib)   ...       0.06 
freq.     739.98  E(vib)   ...       0.06 
freq.     740.91  E(vib)   ...       0.06 
freq.     741.75  E(vib)   ...       0.06 
freq.     742.34  E(vib)   ...       0.06 
freq.     776.67  E(vib)   ...       0.05 
freq.     850.72  E(vib)   ...       0.04 
freq.     994.94  E(vib)   ...       0.02 
freq.     999.17  E(vib)   ...       0.02 
freq.    1000.04  E(vib)   ...       0.02 
freq.    1000.23  E(vib)   ...       0.02 
freq.    1001.78  E(vib)   ...       0.02 
freq.    1001.91  E(vib)   ...       0.02 
freq.    1002.17  E(vib)   ...       0.02 
freq.    1003.66  E(vib)   ...       0.02 
freq.    1005.63  E(vib)   ...       0.02 
freq.    1005.89  E(vib)   ...       0.02 
freq.    1006.37  E(vib)   ...       0.02 
freq.    1006.81  E(vib)   ...       0.02 
freq.    1010.50  E(vib)   ...       0.02 
freq.    1347.79  E(vib)   ...       0.01 
freq.    1351.73  E(vib)   ...       0.01 
freq.    1352.19  E(vib)   ...       0.01 
freq.    1352.90  E(vib)   ...       0.01 
freq.    1353.08  E(vib)   ...       0.01 
freq.    1354.11  E(vib)   ...       0.01 
freq.    1354.84  E(vib)   ...       0.01 
freq.    1355.24  E(vib)   ...       0.01 
freq.    1355.49  E(vib)   ...       0.01 
freq.    1356.16  E(vib)   ...       0.01 
freq.    1357.29  E(vib)   ...       0.01 
freq.    1358.12  E(vib)   ...       0.01 
freq.    1359.44  E(vib)   ...       0.01 
freq.    1359.53  E(vib)   ...       0.01 
freq.    1360.69  E(vib)   ...       0.01 
freq.    1362.00  E(vib)   ...       0.01 
freq.    1362.31  E(vib)   ...       0.01 
freq.    1363.63  E(vib)   ...       0.01 
freq.    1365.30  E(vib)   ...       0.01 
freq.    1366.93  E(vib)   ...       0.01 
freq.    1367.98  E(vib)   ...       0.01 
freq.    1371.29  E(vib)   ...       0.01 
freq.    1372.10  E(vib)   ...       0.01 
freq.    1380.10  E(vib)   ...       0.01 
freq.    1535.93  E(vib)   ...       0.00 
freq.    1544.39  E(vib)   ...       0.00 
freq.    1561.81  E(vib)   ...       0.00 
freq.    1563.65  E(vib)   ...       0.00 
freq.    1567.47  E(vib)   ...       0.00 
freq.    1574.89  E(vib)   ...       0.00 
freq.    1575.79  E(vib)   ...       0.00 
freq.    1628.87  E(vib)   ...       0.00 
freq.    1630.66  E(vib)   ...       0.00 
freq.    1633.87  E(vib)   ...       0.00 
freq.    1636.33  E(vib)   ...       0.00 
freq.    1637.25  E(vib)   ...       0.00 
freq.    1733.48  E(vib)   ...       0.00 
freq.    1842.65  E(vib)   ...       0.00 
freq.    1866.44  E(vib)   ...       0.00 
freq.    1869.62  E(vib)   ...       0.00 
freq.    1885.28  E(vib)   ...       0.00 
freq.    1895.51  E(vib)   ...       0.00 
freq.    1903.29  E(vib)   ...       0.00 
freq.    1905.01  E(vib)   ...       0.00 
freq.    1908.94  E(vib)   ...       0.00 
freq.    1915.64  E(vib)   ...       0.00 
freq.    1939.38  E(vib)   ...       0.00 
freq.    1986.02  E(vib)   ...       0.00 
freq.    2881.57  E(vib)   ...       0.00 
freq.    2885.93  E(vib)   ...       0.00 
freq.    2886.39  E(vib)   ...       0.00 
freq.    2888.83  E(vib)   ...       0.00 
freq.    2890.66  E(vib)   ...       0.00 
freq.    2890.96  E(vib)   ...       0.00 
freq.    2892.54  E(vib)   ...       0.00 
freq.    2905.16  E(vib)   ...       0.00 
freq.    2905.65  E(vib)   ...       0.00 
freq.    2906.59  E(vib)   ...       0.00 
freq.    2907.84  E(vib)   ...       0.00 
freq.    2908.75  E(vib)   ...       0.00 

------------
INNER ENERGY
------------

The inner energy is: U= E(el) + E(ZPE) + E(vib) + E(rot) + E(trans)
    E(el)   - is the total energy from the electronic structure calculation
              = E(kin-el) + E(nuc-el) + E(el-el) + E(nuc-nuc)
    E(ZPE)  - the the zero temperature vibrational energy from the frequency calculation
    E(vib)  - the the finite temperature correction to E(ZPE) due to population
              of excited vibrational states
    E(rot)  - is the rotational thermal energy
    E(trans)- is the translational thermal energy

Summary of contributions to the inner energy U:
Electronic energy                ...  -3976.49636896 Eh
Zero point energy                ...      0.38947341 Eh     244.40 kcal/mol
Thermal vibrational correction   ...      0.06370309 Eh      39.97 kcal/mol
Thermal rotational correction    ...      0.00141627 Eh       0.89 kcal/mol
Thermal translational correction ...      0.00141627 Eh       0.89 kcal/mol
-----------------------------------------------------------------------
Total thermal energy                  -3976.04035991 Eh


Summary of corrections to the electronic energy:
(perhaps to be used in another calculation)
Total thermal correction                  0.06653563 Eh      41.75 kcal/mol
Non-thermal (ZPE) correction              0.38947341 Eh     244.40 kcal/mol
-----------------------------------------------------------------------
Total correction                          0.45600905 Eh     286.15 kcal/mol


--------
ENTHALPY
--------

The enthalpy is H = U + kB*T
                kB is Boltzmann's constant
Total thermal energy              ...  -3976.04035991 Eh 
Thermal Enthalpy correction       ...      0.00094421 Eh       0.59 kcal/mol
-----------------------------------------------------------------------
Total Enthalpy                    ...  -3976.03941571 Eh


Note: Only C1 symmetry has been detected, increase convergence thresholds 
      if your molecule has a higher symmetry. Symmetry factor of 1.0 is   
      used for the rotational entropy correction. 
 

Note: Rotational entropy computed according to Herzberg 
Infrared and Raman Spectra, Chapter V,1, Van Nostrand Reinhold, 1945 
Point Group:  C1, Symmetry Number:   1  
Rotational constants in cm-1:     0.001762     0.001100     0.001073 

Vibrational entropy computed according to the QRRHO of S. Grimme
Chem.Eur.J. 2012 18 9955 using a reference frequency of 100.0 cm-1


-------
ENTROPY
-------

The entropy contributions are T*S = T*(S(el)+S(vib)+S(rot)+S(trans))
     S(el)   - electronic entropy
     S(vib)  - vibrational entropy
     S(rot)  - rotational entropy
     S(trans)- translational entropy
The entropies will be listed as multiplied by the temperature to get
units of energy

Electronic entropy                ...      0.00000000 Eh      0.00 kcal/mol
Vibrational entropy               ...      0.11501968 Eh     72.18 kcal/mol
Rotational entropy                ...      0.01894845 Eh     11.89 kcal/mol
Translational entropy             ...      0.02250776 Eh     14.12 kcal/mol
-----------------------------------------------------------------------
Final entropy term                ...      0.15647589 Eh     98.19 kcal/mol

In case the symmetry of your molecule has not been determined correctly
or in case you have a reason to use a different symmetry number we print 
out the resulting rotational entropy values for sn=1,12:

 non-linear molecules -----------------------------------
|  sn= 1 | S(rot)=       0.01894845 Eh     11.89 kcal/mol|
|  sn= 2 | S(rot)=       0.01829399 Eh     11.48 kcal/mol|
|  sn= 3 | S(rot)=       0.01791116 Eh     11.24 kcal/mol|
|  sn= 4 | S(rot)=       0.01763954 Eh     11.07 kcal/mol|
|  sn= 5 | S(rot)=       0.01742885 Eh     10.94 kcal/mol|
|  sn= 6 | S(rot)=       0.01725671 Eh     10.83 kcal/mol|
|  sn= 7 | S(rot)=       0.01711116 Eh     10.74 kcal/mol|
|  sn= 8 | S(rot)=       0.01698508 Eh     10.66 kcal/mol|
|  sn= 9 | S(rot)=       0.01687387 Eh     10.59 kcal/mol|
|  sn=10 | S(rot)=       0.01677439 Eh     10.53 kcal/mol|
|  sn=11 | S(rot)=       0.01668440 Eh     10.47 kcal/mol|
|  sn=12 | S(rot)=       0.01660225 Eh     10.42 kcal/mol|
 linear molecules ---------------------------------------
|  Dinfh | S(rot)=       0.01178128 Eh      7.39 kcal/mol|
|  Cinfv | S(rot)=       0.01243574 Eh      7.80 kcal/mol|
 --------------------------------------------------------


-------------------
GIBBS FREE ENERGY
-------------------

The Gibbs free energy is G = H - T*S

Total enthalpy                    ...  -3976.03941571 Eh 
Total entropy correction          ...     -0.15647589 Eh    -98.19 kcal/mol
-----------------------------------------------------------------------
Final Gibbs free energy         ...  -3976.19589159 Eh

For completeness - the Gibbs free energy minus the electronic energy
G-E(el)                           ...      0.30047737 Eh    188.55 kcal/mol


Maximum memory used throughout the entire PROP-calculation: 150.1 MB

--------------------------------
SUGGESTED CITATIONS FOR THIS RUN
--------------------------------

Below you find a list of papers that are relevant to this ORCA run
We neither can nor want to force you to cite these papers, but we appreciate if you do
You receive ORCA, which is the product of decades of hard work by many enthusiastic individuals, for free
The only thing we kindly ask in return is that you cite our papers,
We deeply appreciate it, if you show your appreciation for ORCA by not just citing the generic ORCA reference.

Please note that relegating all ORCA citations to the supporting information does *not* help us.
SI sections are not indexed - citations you put there will not count into any citation statistics
But we need these citations in order to attract the funding resources that allow us to do what we are doing

Therefore, if you are a happy ORCA user, please consider citing a few of the papers listed below in the main body of your paper

In addition to the list printed below, the program has created the file run.bibtex that contains the list in bibtex format
You can import this file easily into all common literature databanks and citation aid programs


List of essential papers. We consider these as the minimum necessary citations

  1. Neese, F.
     Software update: the ORCA program system, version 6.0
     WIRES Comput. Molec. Sci. 2025 15(1), e70019
     doi.org/10.1002/wcms.7019

List of papers to cite with high priority. The work reported in these papers was absolutely
necessary for this run to complete.
Our perspective: the developers of density functionals and basis sets usually get cited in chemistry papers
Good! But without the algorithms to do something with them, the functionals or basis sets would not do anything.
Hence, in our opinion, the algorithm design and method developments papers are equally worthy of getting cited

  1. Neese, F.
     An improvement of the resolution of the identity approximation for the formation of the Coulomb matrix
     J. Comp. Chem. 2003 24(14), 1740-1747
     doi.org/10.1002/jcc.10318
  2. Grimme, S.; Antony, J.; Ehrlich, S.; Krieg, H.
     A consistent and accurate ab initio parametrization of density functional dispersion correction (DFT-D) for the 94 elements H-Pu
     J. Chem. Phys. 2010 132 , 154104
     doi.org/10.1063/1.3382344
  3. Grimme, S.; Ehrlich, S.; Goerigk, L.
     Effect of the damping function in dispersion corrected density functional theory
     J. Comput. Chem. 2011 32(7), 1456-1465
     doi.org/10.1002/jcc.21759
  4. Bykov, D.; Petrenko, T.; Izsak, R.; Kossmann, S.; Becker, U.; Valeev, E.; Neese, F.
     Efficient implementation of the analytic second derivatives of Hartree-Fock and hybrid DFT energies: a detailed analysis of different approximations
     Molec. Phys. 2015 113 , 1961-1977
     doi.org/10.1080/00268976.2015.1025114
  5. Helmich-Paris, B.
     A trust-region augmented Hessian implementation for restricted and unrestricted Hartree–Fock and Kohn–Sham methods
     J. Chem. Phys. 2021 154 , 164104
     doi.org/10.1063/5.0040798
  6. Neese, F.
     The SHARK Integral Generation and Digestion System
     J. Comp. Chem. 2022 44(3), 381
     doi.org/10.1002/jcc.26942

List of suggested additional citations. These are papers that are important in the 'surrounding' of 
of this run, or papers that preceded the highly important papers. If you like your results we are grateful for a citation.

  1. Neese, F.
     The ORCA program system
     WIRES Comput. Molec. Sci. 2012 2(1), 73-78
     doi.org/10.1002/wcms.81
  2. Neese, F.
     Software update: the ORCA program system, version 4.0
     WIRES Comput. Molec. Sci. 2018 8(1), 1-6
     doi.org/10.1002/wcms.1327
  3. Neese, F.; Wennmohs, F.; Becker, U.; Riplinger, C.
     The ORCA quantum chemistry program package
     J. Chem. Phys. 2020 152(22), 224108
     doi.org/10.1063/5.0004608
  4. Neese, F.
     Software update: The ORCA program system—Version 5.0
     WIRES Comput. Molec. Sci. 2022 12(1), e1606
     doi.org/10.1002/wcms.1606

List of optional additional citations

  1. Neese, F.
     Approximate second-order SCF convergence for spin unrestricted wavefunctions
     Chem. Phys. Lett. 2000 325(1-3), 93-98
     doi.org/10.1016/s0009-2614(00)00662-x

Timings for individual modules:

Sum of individual times          ...     8296.637 sec (= 138.277 min)
Startup calculation              ...      318.705 sec (=   5.312 min)   3.8 %
SCF iterations                   ...     2494.619 sec (=  41.577 min)  30.1 %
Property integrals               ...     1708.797 sec (=  28.480 min)  20.6 %
SCF Response                     ...     1445.814 sec (=  24.097 min)  17.4 %
Property calculations            ...     1499.246 sec (=  24.987 min)  18.1 %
SCF Gradient evaluation          ...      806.905 sec (=  13.448 min)   9.7 %
Geometry relaxation              ...       22.551 sec (=   0.376 min)   0.3 %
                             ****ORCA TERMINATED NORMALLY****
TOTAL RUN TIME: 0 days 2 hours 18 minutes 45 seconds 366 msec
