
                                 *****************
                                 * O   R   C   A *
                                 *****************

                                            #,                                       
                                            ###                                      
                                            ####                                     
                                            #####                                    
                                            ######                                   
                                           ########,                                 
                                     ,,################,,,,,                         
                               ,,#################################,,                 
                          ,,##########################################,,             
                       ,#########################################, ''#####,          
                    ,#############################################,,   '####,        
                  ,##################################################,,,,####,       
                ,###########''''           ''''###############################       
              ,#####''   ,,,,##########,,,,          '''####'''          '####       
            ,##' ,,,,###########################,,,                        '##       
           ' ,,###''''                  '''############,,,                           
         ,,##''                                '''############,,,,        ,,,,,,###''
      ,#''                                            '''#######################'''  
     '                                                          ''''####''''         
             ,#######,   #######,   ,#######,      ##                                
            ,#'     '#,  ##    ##  ,#'     '#,    #''#        ,####,    ,#,          
            ##       ##  ##   ,#'  ##            #'  '#       #'       ,# #          
            ##       ##  #######   ##           ,######,      #####,      #          
            '#,     ,#'  ##    ##  '#,     ,#' ,#      #,     #,   #      #          
             '#######'   ##     ##  '#######'  #'      '#     '####' #    #          



                #########################################################
                #                        -***-                          #
                #          Department of theory and spectroscopy        #
                #                                                       #
                #                      Frank Neese                      #
                #                                                       #
                #     Directorship, Architecture, Infrastructure        #
                #                    SHARK, DRIVERS                     #
                #        Core code/Algorithms in most modules           #
                #                                                       #
                #        Max Planck Institute fuer Kohlenforschung      #
                #                Kaiser Wilhelm Platz 1                 #
                #                 D-45470 Muelheim/Ruhr                 #
                #                      Germany                          #
                #                                                       #
                #                  All rights reserved                  #
                #                        -***-                          #
                #########################################################


                         Program Version 6.1.0  -  RELEASE   -
                                (GIT: $679e74b$)
                          ($2025-06-10 18:02:51 +0200$)


 With contributions from (in alphabetic order):
[Max-Planck-Institut fuer Kohlenforschung]                               
  Daniel Aravena         : Magnetic Suceptibility                        
  Michael Atanasov       : Ab Initio Ligand Field Theory (pilot matlab implementation)
  Alexander A. Auer      : GIAO ZORA, VPT2 properties, NMR spectrum      
  Ute Becker             : All parallelization in ORCA, NUMFREQ, NUMCALC 
  Giovanni Bistoni       : ED, misc. LED, open-shell LED, HFLD           
  Dmytro Bykov           : pre 5.0 version of the SCF Hessian            
  Marcos Casanova-Páez   : Triplet and SCS-CIS(D). UHF-(DLPNO)-IP/EA/STEOM-CCSD. UHF-CVS-IP/STEOM-CCSD   
  Vijay G. Chilkuri      : MRCI spin determinant printing, contributions to CSF-ICE 
  Pauline Colinet        : FMM embedding                                 
  Dipayan Datta          : RHF DLPNO-CCSD density                        
  Achintya Kumar Dutta   : EOM-CC, STEOM-CC                              
  Nicolas Foglia         : Exact transition moments, OPA infrastructure, MCD improvements    
  Dmitry Ganyushin       : Spin-Orbit,Spin-Spin,Magnetic field MRCI      
  Miquel Garcia-Rates    : C-PCM and meta-GGA Hessian, CCSD/C-PCM, Gaussian charge scheme 
  Tiago L. C. Gouveia    : GS-ROHF, GS-ROCIS                             
  Yang Guo               : DLPNO-NEVPT2, F12-NEVPT2, CIM, IAO-localization        
  Andreas Hansen         : Spin unrestricted coupled pair/coupled cluster methods 
  Ingolf Harden          : AUTO-CI MPn and infrastructure                
  Benjamin Helmich-Paris : MC-RPA, TRAH-(SCF,CASSCF), AVAS, COSX integrals, SCF dyn. polar., MC-PDFT, srDFT 
  Lee Huntington         : MR-EOM, pCC                                   
  Robert Izsak           : Overlap fitted RIJCOSX, COSX-SCS-MP3, EOM     
  Riya Kayal             : Wick's Theorem for AUTO-CI, AUTO-CI UHF-CCSDT 
  Emily Kempfer          : AUTO-CI RHF CISDT and CCSDT, approximate NEVPT4
  Christian Kollmar      : KDIIS, OOCD, Brueckner-CCSD(T), CCSD density, CASPT2, CASPT2-K, improved NEVPT2 
  Axel Koslowski         : Symmetry handling                             
  Simone Kossmann        : meta-GGA functionals, TD-DFT gradient, OOMP2, (MP2 Hessian; deprecated post 5.0) 
  Lucas Lang             : DCDCAS, Hyperfine gauge corrections, ICE-SOC+SSC
  Marvin Lechner         : AUTO-CI (C++ implementation), FIC-MRCC        
  Spencer Leger          : CASSCF response                               
  Dagmar Lenk            : GEPOL surface, SMD, ORCA-2-JSON               
  Dimitrios Liakos       : Extrapolation schemes; Compound Job, Property file
  Dimitrios Manganas     : Further ROCIS development; embedding schemes. LFT, Crystal Embedding 
  Dimitrios Pantazis     : SARC Basis sets                               
  Anastasios Papadopoulos: AUTO-CI, single reference methods and gradients 
  Taras Petrenko         : pre 6.0 DFT Hessian and TD-DFT gradient,  ECA, NRVS 
  Petra Pikulova         : Analytic Raman intensities                    
  Peter Pinski           : DLPNO-MP2, DLPNO-MP2 Gradient                 
  Shashank Vittal Rao    : ES-AILFT, MagRelax                            
  Christoph Reimann      : Effective Core Potentials                     
  Marius Retegan         : Local ZFS, SOC                                
  Christoph Riplinger    : Optimizer, TS searches, QM/MM, DLPNO-CCSD(T), (RO)-DLPNO pert. Triples 
  Michael Roemelt        : Original ROCIS implementation, recursive CI coupling coefficients
  Masaaki Saitow         : Open-shell DLPNO-CCSD energy and density      
  Barbara Sandhoefer     : DKH picture change effects                    
  Yorick L. A. Schmerwitz: GMF and freeze-and-release deltaSCF, NEB S-IDPP initial path                    
  Kantharuban Sivalingam : CASSCF convergence/infrastructure, NEVPT2, NEVPT3, NEVPT4(SD), FIC-MRCI and CEPA variants
  Bernardo de Souza      : ESD, SOC TD-DFT                               
  Georgi L. Stoychev     : AutoAux, RI-MP2 NMR, DLPNO-MP2 response, X2C  
  Van Anh Tran           : RI-MP2 g-tensors                              
  Willem Van den Heuvel  : Paramagnetic NMR                              
  Zikuan Wang            : NOTCH, Electric field optimization            
  Frank Wennmohs         : Technical directorship and infrastructure     
  Hang Xu                : AUTO-CI-Response properties                   
                                                                         
[FACCTs GmbH]                                                            
  Markus Bursch, Nicolas Foglia, Miquel Garcia-Rates, Ingolf Harden, Hagen Neugebauer, Anastasios Papadopoulos, 
  Christoph Riplinger, Bernardo de Souza, Georgi L. Stoychev                                                    
                                                                 
  APM, various basis sets, CI-OPT, improved COSX, DLPNO-Multilevel,           
  DOCKER, DRACO, updates on ESD, Fragmentator, GOAT, IRC, LR-CPCM, L-BFGS, MBIS, meta-GGA TD-DFT gradient, ML-optimized integration grids, 
  MM, NACMEs, nearIR, NEB, NEB-TS, NL-DFT gradient (VV10), 2- and 3-layer-ONIOM, interface openCOSMO-RS, QMMM,   
  Crystal-QMMM, RESP, rigid body optimization, SF, symmetry and pop. for TD-DFT, various functionals, SOLVATOR                                   
                                                                         
[Other institutions]                                                     
  V. Asgeirsson          : NEB                                           
  Christoph Bannwarth    : sTDA-DFT, sTD-DFT, PBEh-3c, B97-3c, D3        
  Giovanni Bistoni       : ETS/NOCV, ADLD/ADEX, COVALED                  
  Martin Brehm           : Molecular dynamics                            
  Ronald Cardenas        : ETS/NOCV                                      
  Martina Colucci        : COVALED                                       
  Sebastian Ehlert       : rSCAN, r2SCAN, r2SCAN-3c, D4, dhf basis sets  
  Marvin Friede          : D4 for Fr, Ra, Ac-Lr                          
  Lars Goerigk           : TD-DFT with DH, B97 family of functionals     
  Stefan Grimme          : VdW corrections, initial TS optimization, DFT functionals, gCP, sTDA/sTD-DF 
  Waldemar Hujo          : DFT-NL                                        
  H. Jonsson             : NEB                                           
  Holger Kruse           : gCP                                           
  Marcel Mueller         : wB97X-3c, vDZP basis set                      
  Hagen Neugebauer       : wr2SCAN, Native XTB                           
  Gianluca Regni         : ADLD/ADEX                                     
  Tobias Risthaus        : pre 6.0 range-separated hybrid DFT and stability analysis
  Lukas Wittmann         : regularized MP2, r2SCAN double-hybrids, wr2SCAN        
                                                                         
We gratefully acknowledge several colleagues who have allowed us to      
interface, adapt or use parts of their codes:                            
  Ed Valeev, F. Pavosevic, A. Kumar             : LibInt (2-el integral package), F12 methods 
  Garnet Chan, S. Sharma, J. Yang, R. Olivares  : DMRG                   
  Ulf Ekstrom                                   : XCFun DFT Library      
  Mihaly Kallay                                 : mrcc  (arbitrary order and MRCC methods)
  Frank Weinhold                                : gennbo (NPA and NBO analysis)           
  Simon Mueller                                 : openCOSMO-RS                            
  Christopher J. Cramer and Donald G. Truhlar   : smd solvation model                     
  S Lehtola, MJT Oliveira, MAL Marques          : LibXC Library                           
  Liviu Ungur et al                             : ANISO software                          


 Your calculation uses the libint2 library for the computation of 2-el integrals
 For citations please refer to: http://libint.valeyev.net

 Your ORCA version has been built with support for libXC version: 7.0.0
 For citations please refer to: https://libxc.gitlab.io

 This ORCA versions uses:
   CBLAS   interface :  Fast vector & matrix operations
   LAPACKE interface :  Fast linear algebra routines
   SCALAPACK package :  Parallel linear algebra routines
   Shared memory     :  Shared parallel matrices
   BLAS/LAPACK       :  OpenBLAS 0.3.29  USE64BITINT DYNAMIC_ARCH NO_AFFINITY Bulldozer SINGLE_THREADED
        Core in use  :  Bulldozer
   Copyright (c) 2011-2014, The OpenBLAS Project


  ***********************************
  * Starting time: Tue Aug 12 23:05:38 2025
  * Host name:     chromium03
  * Process ID:    149541
  * Working dir.:  /local/scratch/mehlhorn/61819
  ***********************************



***************************************
The coordinates will be read from file: start.xyz
***************************************


Your calculation utilizes the geometrical counterpoise correction gCP
Please cite in your paper:
H.Kruse, S. Grimme J.Chem.Phys., 136, (2012), 154101 
   

Your calculation utilizes the atom-pairwise dispersion correction
with the Becke-Johnson damping scheme (D3BJ)


Warning: RI is on but no J-basis has been assigned. Assigning Def2/J (nothing to worry about!)
================================================================================

cite the ECPs for Zr [Def2-ECP] as follows:
Ce-Yb(ecp-28): M. Dolg, H. Stoll, H.Preuss, J. Chem. Phys., 1989, 90, 1730-1734.
Y-Cd(ecp-28), Hf-Hg(ecp-46): D. Andrae,U. Haeussermann, M. Dolg, H. Stoll, H. Preuss, Theor. Chim. Acta, 1990, 77, 123-141.
In-Sb(ecp-28), Tl-Bi(ecp-46): B. Metz, H. Stoll, M. Dolg, J. Chem. Phys., 2000, 113, 2563-2569.
Te-Xe(ecp-28), Po-Rn(ecp-46): K. A. Peterson, D. Figgen, E. Goll, H. Stoll, M. Dolg, J. Chem. Phys., 2003, 119, 11113-11123.
Rb(ecp-28), Cs(ecp-46): T. Leininger, A. Nicklass, W. Kuechle, H. Stoll, M. Dolg, A. Bergner, Chem. Phys. Lett., 1996, 255, 274-280.
Sr(ecp-28), Ba(ecp-46): M. Kaupp, P. V. Schleyer, H. Stoll and H. Preuss, J. Chem. Phys., 1991, 94, 1360-1366.
La(ecp-46): M. Dolg, H. Stoll, A. Savin, H. Preuss, Theor. Chim. Acta, 1989, 75, 173-194.
Lu(ecp-28): X. Cao, M. Dolg, J. Chem. Phys., 2001, 115, 7348-7355.

ECP parameters for Zr [Def2-ECP] have been obtained from:
TURBOMOLE (7.0.2)

----- Orbital basis set information -----
Your calculation utilizes the basis: def2-SV(P)
   F. Weigend and R. Ahlrichs, Phys. Chem. Chem. Phys. 7, 3297 (2005).

----- AuxJ basis set information -----
Your calculation utilizes the auxiliary basis: def2/J
   H-Rn: F. Weigend, Phys. Chem. Chem. Phys. 8, 1057 (2006).
   Fr-Lr: K. Eichkorn, F. Weigend, O. Treutler, R. Ahlrichs; Theor. Chem. Acc. 97, 119 (1997).

================================================================================
                                        WARNINGS
                       Please study these warnings very carefully!
================================================================================


WARNING: Gradients are needed
  ===> : At least TightSCF should be used for SCF convergence

WARNING: Geometry Optimization
  ===> : Switching off AutoStart
         For restart on a previous wavefunction, please use MOREAD

================================================================================
                                       INPUT FILE
================================================================================
NAME = run.inp
|  1> # Geometry optimization for (AlH3)n cluster
|  2> 
|  3> %pal nprocs 24  end
|  4> 
|  5> %geom MaxIter 500 end
|  6> 
|  7> 
|  8> ! PBE def2-SV(P)
|  9> ! RKS	# closed shell for AlH3
| 10> ! D3    #  dispersion correction
| 11> ! gCP(DFT/SV(P))
| 12> ! Freq 	# Frequency analysis to check the stabiltity of the structures
| 13> 
| 14> ! NoPop # population analysis not necessary	
| 15> 
| 16> ! DEFGRID2
| 17> ! NormalSCF
| 18> ! SloppyOpt
| 19> 
| 20> ! SmallPrint
| 21> 
| 22> 
| 23> * xyzFile 0 1 start.xyz # only maingroup elements H and Al so there should be no net spin
| 24> 
| 25>                          ****END OF INPUT****
================================================================================

                       *****************************
                       * Geometry Optimization Run *
                       *****************************

Geometry optimization settings:
Update method            Update   .... BFGS
Choice of coordinates    CoordSys .... (2022) Redundant Internals
Initial Hessian          InHess   .... Almloef's Model
Max. no of cycles        MaxIter  .... 500

Convergence Tolerances:
Energy Change            TolE     ....  8.0000e-05 Eh
Max. Gradient            TolMAXG  ....  5.0000e-03 Eh/bohr
RMS Gradient             TolRMSG  ....  1.0000e-03 Eh/bohr
Max. Displacement        TolMAXD  ....  3.0000e-02 bohr
RMS Displacement         TolRMSD  ....  2.0000e-02 bohr
Strict Convergence                .... False

------------------------------------------------------------------------------
                        ORCA OPTIMIZATION COORDINATE SETUP
------------------------------------------------------------------------------

The optimization will be done in redundant internal coordinates (2022)
Making redundant internal coordinates   ...  (2022 redundants) done
Evaluating the initial hessian          ...  (Almloef) done
Evaluating the coordinates              ...  done
Calculating the B-matrix                .... done
Calculating the G-matrix                .... done
The number of degrees of freedom        ....  740

    -----------------------------------------------------------------
                    Redundant Internal Coordinates


    -----------------------------------------------------------------
         Definition                    Initial Value    Approx d2E/dq
    -----------------------------------------------------------------
      1. B(Zr  2,Zr  1)                  3.4331         0.035188   
      2. B(Zr  3,Zr  0)                  3.4284         0.035794   
      3. B(Zr  4,Zr  3)                  3.4032         0.039272   
      4. B(Zr  4,Zr  1)                  3.3713         0.044158   
      5. B(Zr  5,Zr  0)                  3.3734         0.043817   
      6. B(Zr  5,Zr  2)                  3.4193         0.037015   
      7. B(O   6,Zr  5)                  2.1589         0.335979   
      8. B(O   6,Zr  3)                  2.0995         0.417812   
      9. B(O   6,Zr  0)                  2.0801         0.448788   
     10. B(O   7,Zr  2)                  2.0880         0.435959   
     11. B(O   7,Zr  1)                  2.0831         0.443879   
     12. B(O   7,Zr  4)                  2.1464         0.351675   
     13. B(O   8,Zr  5)                  2.1753         0.316297   
     14. B(O   8,Zr  1)                  2.1680         0.324942   
     15. B(O   8,Zr  2)                  2.1509         0.345936   
     16. B(O   9,Zr  0)                  2.1701         0.322442   
     17. B(O   9,Zr  4)                  2.1810         0.309744   
     18. B(O   9,Zr  3)                  2.1492         0.348136   
     19. B(O  10,Zr  3)                  2.0667         0.471422   
     20. B(O  10,Zr  4)                  2.1095         0.402760   
     21. B(O  10,Zr  1)                  2.1242         0.381646   
     22. B(O  11,Zr  0)                  2.1262         0.378859   
     23. B(O  11,Zr  2)                  2.0758         0.455930   
     24. B(O  11,Zr  5)                  2.1049         0.409652   
     25. B(O  12,Zr  0)                  1.9941         0.615486   
     26. B(O  13,Zr  0)                  1.9858         0.634561   
     27. B(O  14,Zr  0)                  2.0752         0.456922   
     28. B(O  15,Zr  0)                  1.9811         0.645457   
     29. B(O  16,Zr  1)                  1.9866         0.632674   
     30. B(O  17,Zr  1)                  2.0720         0.462264   
     31. B(O  18,Zr  1)                  1.9857         0.634699   
     32. B(O  19,Zr  1)                  1.9965         0.609978   
     33. B(O  20,Zr  2)                  1.9697         0.673051   
     34. B(O  21,Zr  2)                  2.0671         0.470752   
     35. B(O  22,Zr  2)                  1.9822         0.642871   
     36. B(O  23,Zr  2)                  2.0665         0.471772   
     37. B(O  24,Zr  3)                  2.0590         0.484865   
     38. B(O  25,Zr  3)                  1.9795         0.649417   
     39. B(O  26,Zr  3)                  2.0668         0.471181   
     40. B(O  27,Zr  3)                  1.9727         0.665790   
     41. B(O  28,Zr  4)                  1.9737         0.663432   
     42. B(O  29,Zr  4)                  2.0098         0.580923   
     43. B(O  30,Zr  4)                  1.9916         0.621243   
     44. B(O  31,Zr  4)                  2.0784         0.451551   
     45. B(O  32,Zr  5)                  2.0713         0.463447   
     46. B(O  33,Zr  5)                  1.9885         0.628298   
     47. B(O  34,Zr  5)                  2.0194         0.560912   
     48. B(O  35,Zr  5)                  1.9784         0.651992   
     49. B(C  36,O  33)                  1.3020         0.773087   
     50. B(C  36,O  12)                  1.3015         0.774664   
     51. B(C  37,O  25)                  1.3013         0.775054   
     52. B(C  37,O  13)                  1.3014         0.774769   
     53. B(C  38,O  21)                  1.2978         0.785288   
     54. B(C  38,O  14)                  1.2969         0.787801   
     55. B(C  39,O  29)                  1.2950         0.793239   
     56. B(C  39,O  15)                  1.2946         0.794463   
     57. B(C  40,O  34)                  1.2952         0.792658   
     58. B(C  40,O  16)                  1.2951         0.793140   
     59. B(C  41,O  17)                  1.2967         0.788331   
     60. B(C  41,O  26)                  1.2971         0.787203   
     61. B(C  42,O  22)                  1.3009         0.776161   
     62. B(C  42,O  18)                  1.3008         0.776611   
     63. B(C  43,O  19)                  1.3020         0.773296   
     64. B(C  43,O  30)                  1.3025         0.771629   
     65. B(C  44,O  35)                  1.2986         0.783016   
     66. B(C  44,O  20)                  1.2985         0.783048   
     67. B(C  45,O  31)                  1.2984         0.783572   
     68. B(C  45,O  23)                  1.3003         0.777901   
     69. B(C  46,O  32)                  1.2981         0.784305   
     70. B(C  46,O  24)                  1.2999         0.779177   
     71. B(C  47,O  28)                  1.2991         0.781529   
     72. B(C  47,O  27)                  1.2989         0.782164   
     73. B(H  48,C  41)                  1.0849         0.366955   
     74. B(H  49,C  42)                  1.0912         0.358529   
     75. B(H  50,C  38)                  1.0851         0.366688   
     76. B(H  51,C  37)                  1.0916         0.358003   
     77. B(H  52,C  43)                  1.0925         0.356750   
     78. B(H  53,C  47)                  1.0903         0.359762   
     79. B(H  54,C  39)                  1.0857         0.365781   
     80. B(H  55,C  45)                  1.0866         0.364626   
     81. B(H  56,C  40)                  1.0863         0.365081   
     82. B(H  57,C  46)                  1.0866         0.364656   
     83. B(H  58,C  36)                  1.0923         0.357100   
     84. B(H  59,C  44)                  1.0900         0.360108   
     85. B(Al 60,O  29)                  3.3100         0.010000   
     86. B(Al 60,O  28)                  3.3834         0.010000   
     87. B(Al 61,Al 60)                  3.2828         0.029308   
     88. B(H  62,O  15)                  3.2822         0.010000   
     89. B(H  62,C  37)                  3.2756         0.010000   
     90. B(H  62,O  13)                  2.7091         0.010000   
     91. B(H  62,Al 61)                  1.6689         0.300943   
     92. B(H  62,H  51)                  3.3162         0.010000   
     93. B(H  63,Al 61)                  1.5956         0.393819   
     94. B(H  64,H  53)                  3.0410         0.010000   
     95. B(H  64,O  28)                  2.9295         0.010000   
     96. B(H  64,C  47)                  3.1001         0.010000   
     97. B(H  64,Al 61)                  1.6690         0.300820   
     98. B(H  64,Al 60)                  1.6704         0.299271   
     99. B(H  64,O  29)                  3.3528         0.010000   
    100. B(H  65,Al 60)                  1.5953         0.394261   
    101. B(H  66,H  54)                  2.7499         0.010000   
    102. B(H  66,Al 60)                  1.6695         0.300244   
    103. B(H  66,C  39)                  3.3475         0.010000   
    104. B(H  67,O  13)                  3.2473         0.010000   
    105. B(H  67,O  25)                  3.0194         0.010000   
    106. B(H  67,C  47)                  2.8494         0.010000   
    107. B(H  67,H  53)                  2.8336         0.010000   
    108. B(H  67,H  51)                  2.8011         0.010000   
    109. B(H  67,C  37)                  2.7630         0.010000   
    110. B(H  67,O  27)                  2.7565         0.010000   
    111. B(H  67,Al 61)                  1.5954         0.394195   
    112. B(Al 68,O  15)                  3.2878         0.010000   
    113. B(Al 68,H  62)                  1.6697         0.299960   
    114. B(Al 68,Al 61)                  3.2861         0.028957   
    115. B(Al 68,O  13)                  3.3514         0.010000   
    116. B(H  69,H  54)                  2.8623         0.010000   
    117. B(H  69,Al 68)                  1.6693         0.300393   
    118. B(H  70,Al 68)                  1.5956         0.393850   
    119. B(H  71,O  28)                  2.8140         0.010000   
    120. B(H  71,O  29)                  2.6102         0.010000   
    121. B(H  71,Al 60)                  1.5965         0.392567   
    122. B(Al 72,H  54)                  2.9024         0.010000   
    123. B(Al 72,H  69)                  1.6698         0.299930   
    124. B(Al 72,Al 68)                  3.3193         0.025633   
    125. B(Al 72,H  66)                  1.6699         0.299761   
    126. B(Al 72,Al 60)                  3.3204         0.025531   
    127. B(H  73,Al 72)                  1.5962         0.392988   
    128. B(H  74,H  54)                  2.6948         0.010000   
    129. B(H  74,Al 72)                  1.5959         0.393398   
    130. B(H  75,O  13)                  2.9679         0.010000   
    131. B(H  75,O  15)                  2.6690         0.010000   
    132. B(H  75,Al 68)                  1.5962         0.392954   
    133. A(O   6,Zr  0,O  13)           93.8950         0.514058   
    134. A(O   6,Zr  0,O  14)          127.7364         0.483607   
    135. A(O  12,Zr  0,O  15)          135.7245         0.547321   
    136. A(O   9,Zr  0,O  15)           75.0230         0.484933   
    137. A(O  11,Zr  0,O  14)           69.8072         0.468765   
    138. A(O   6,Zr  0,O  12)           81.6135         0.511131   
    139. A(Zr  3,Zr  0,O  11)           87.1747         0.327897   
    140. A(Zr  5,Zr  0,O  15)          141.7088         0.371138   
    141. A(Zr  5,Zr  0,O   6)           38.0867         0.348860   
    142. A(Zr  5,Zr  0,O   9)           95.2304         0.330124   
    143. A(O  12,Zr  0,O  13)           81.1226         0.545558   
    144. A(O   9,Zr  0,O  14)          138.1761         0.455155   
    145. A(O  12,Zr  0,O  14)           80.1281         0.512851   
    146. A(Zr  5,Zr  0,O  11)           36.9109         0.339086   
    147. A(Zr  3,Zr  0,O  15)          111.6022         0.358515   
    148. A(Zr  5,Zr  0,O  13)          127.3717         0.370053   
    149. A(O   9,Zr  0,O  12)          140.8975         0.480695   
    150. A(O  14,Zr  0,O  15)           75.6709         0.517437   
    151. A(O  13,Zr  0,O  15)           87.0686         0.550498   
    152. A(Zr  5,Zr  0,O  12)           73.3510         0.368118   
    153. A(O  11,Zr  0,O  12)          100.3246         0.495254   
    154. A(Zr  3,Zr  0,O  13)           72.5416         0.357478   
    155. A(O  13,Zr  0,O  14)          130.4077         0.515789   
    156. A(O   9,Zr  0,O  13)           76.7812         0.483410   
    157. A(O   6,Zr  0,O  15)          141.9929         0.515699   
    158. A(Zr  3,Zr  0,Zr  5)           71.0424         0.253135   
    159. A(O  11,Zr  0,O  13)          159.1906         0.498070   
    160. A(Zr  3,Zr  0,O   9)           37.2508         0.319335   
    161. A(O   6,Zr  0,O   9)           68.3068         0.453670   
    162. A(O  11,Zr  0,O  15)          105.1756         0.499649   
    163. A(Zr  5,Zr  0,O  14)           89.6912         0.349919   
    164. A(O   9,Zr  0,O  11)           89.9911         0.439953   
    165. A(Zr  3,Zr  0,O   6)           35.0741         0.337234   
    166. A(Zr  3,Zr  0,O  14)          156.9804         0.338245   
    167. A(O   6,Zr  0,O  11)           66.0393         0.467224   
    168. A(Zr  3,Zr  0,O  12)          105.1689         0.355630   
    169. A(Zr  2,Zr  1,O  18)           73.0713         0.356457   
    170. A(O   8,Zr  1,O  16)           75.0318         0.483834   
    171. A(O   7,Zr  1,O  18)           94.2097         0.513021   
    172. A(Zr  4,Zr  1,O  16)          142.8176         0.370358   
    173. A(O   8,Zr  1,O  17)          138.3720         0.456762   
    174. A(O   8,Zr  1,O  10)           89.5470         0.441151   
    175. A(Zr  2,Zr  1,O  10)           86.3847         0.327371   
    176. A(Zr  2,Zr  1,O   8)           37.1823         0.318849   
    177. A(O  16,Zr  1,O  17)           76.5224         0.516625   
    178. A(O  16,Zr  1,O  19)          135.7759         0.544323   
    179. A(Zr  4,Zr  1,O  17)           89.8423         0.351067   
    180. A(O   8,Zr  1,O  18)           76.5817         0.484120   
    181. A(O  16,Zr  1,O  18)           85.5535         0.548436   
    182. A(O  10,Zr  1,O  17)           70.0428         0.470397   
    183. A(O  17,Zr  1,O  18)          130.4281         0.516934   
    184. A(O   7,Zr  1,O  10)           65.7918         0.466910   
    185. A(Zr  2,Zr  1,Zr  4)           70.3181         0.252790   
    186. A(O  10,Zr  1,O  16)          106.1680         0.498473   
    187. A(Zr  2,Zr  1,O  16)          111.4917         0.356264   
    188. A(Zr  2,Zr  1,O  19)          104.9666         0.354063   
    189. A(O  18,Zr  1,O  19)           81.8542         0.544652   
    190. A(Zr  2,Zr  1,O   7)           34.6526         0.335662   
    191. A(O   7,Zr  1,O  17)          127.6072         0.483663   
    192. A(Zr  4,Zr  1,O  19)           72.9485         0.368041   
    193. A(O  10,Zr  1,O  19)          100.1557         0.495101   
    194. A(O  10,Zr  1,O  18)          159.0762         0.498769   
    195. A(O   7,Zr  1,O   8)           68.0194         0.453399   
    196. A(O   8,Zr  1,O  19)          140.6499         0.480583   
    197. A(Zr  2,Zr  1,O  17)          156.4275         0.337939   
    198. A(Zr  4,Zr  1,O   7)           37.8032         0.348670   
    199. A(Zr  4,Zr  1,O  18)          127.5198         0.370562   
    200. A(O   7,Zr  1,O  16)          141.9752         0.512715   
    201. A(Zr  4,Zr  1,O  10)           37.0722         0.339942   
    202. A(O   7,Zr  1,O  19)           81.3643         0.509226   
    203. A(Zr  4,Zr  1,O   8)           94.8327         0.330971   
    204. A(O  17,Zr  1,O  19)           80.0370         0.513104   
    205. A(O  20,Zr  2,O  21)           81.4250         0.524444   
    206. A(O   8,Zr  2,O  23)          139.0175         0.463733   
    207. A(O   7,Zr  2,O   8)           68.2563         0.457097   
    208. A(Zr  5,Zr  2,O  22)          122.2022         0.360323   
    209. A(Zr  1,Zr  2,O  23)          102.0620         0.339088   
    210. A(Zr  5,Zr  2,O   8)           38.0315         0.324816   
    211. A(Zr  5,Zr  2,O   7)           89.4233         0.337490   
    212. A(O  22,Zr  2,O  23)           82.3870         0.520157   
    213. A(O  21,Zr  2,O  23)           77.5851         0.490796   
    214. A(O  11,Zr  2,O  23)          114.5074         0.487897   
    215. A(Zr  1,Zr  2,O   8)           37.5274         0.322130   
    216. A(O  20,Zr  2,O  22)           83.6705         0.556265   
    217. A(O  11,Zr  2,O  21)           70.9314         0.487701   
    218. A(O  20,Zr  2,O  23)          135.0468         0.524658   
    219. A(Zr  1,Zr  2,Zr  5)           70.3096         0.246378   
    220. A(O   8,Zr  2,O  11)           67.6633         0.460847   
    221. A(O   8,Zr  2,O  21)          133.7208         0.463550   
    222. A(Zr  5,Zr  2,O  23)          147.1196         0.341970   
    223. A(O  21,Zr  2,O  22)          132.9623         0.519946   
    224. A(Zr  1,Zr  2,O  21)          154.1382         0.338966   
    225. A(O  11,Zr  2,O  22)          154.9986         0.516837   
    226. A(Zr  5,Zr  2,O  21)           95.7237         0.341846   
    227. A(O   7,Zr  2,O  21)          128.0518         0.483680   
    228. A(O   7,Zr  2,O  11)           85.6247         0.480832   
    229. A(Zr  1,Zr  2,O  22)           71.6372         0.357232   
    230. A(Zr  5,Zr  2,O  11)           35.4087         0.340022   
    231. A(Zr  1,Zr  2,O  11)           86.3058         0.337162   
    232. A(O   8,Zr  2,O  22)           87.4552         0.490920   
    233. A(Zr  1,Zr  2,O   7)           34.5597         0.334659   
    234. A(Zr  1,Zr  2,O  20)          113.5296         0.360032   
    235. A(O   7,Zr  2,O  20)          148.0715         0.516942   
    236. A(Zr  5,Zr  2,O  20)           73.8116         0.363155   
    237. A(O   7,Zr  2,O  22)           82.7338         0.512522   
    238. A(O   8,Zr  2,O  20)           82.4128         0.495116   
    239. A(O  11,Zr  2,O  20)           94.9459         0.521303   
    240. A(O   7,Zr  2,O  23)           71.1087         0.483873   
    241. A(O   9,Zr  3,O  10)           68.0229         0.464208   
    242. A(O  25,Zr  3,O  27)           84.5207         0.556189   
    243. A(Zr  4,Zr  3,O  10)           35.8428         0.345338   
    244. A(Zr  0,Zr  3,O   6)           34.7019         0.333248   
    245. A(O   6,Zr  3,O  24)           71.2973         0.482522   
    246. A(O   6,Zr  3,O  27)          146.9192         0.511805   
    247. A(Zr  4,Zr  3,O  24)          144.9217         0.346974   
    248. A(Zr  4,Zr  3,O  27)           73.5683         0.366170   
    249. A(O   6,Zr  3,O  26)          129.5778         0.479981   
    250. A(O  24,Zr  3,O  27)          136.4489         0.526291   
    251. A(O  26,Zr  3,O  27)           80.9339         0.523466   
    252. A(O   9,Zr  3,O  27)           81.3413         0.494702   
    253. A(O  25,Zr  3,O  26)          131.9687         0.521025   
    254. A(O   9,Zr  3,O  26)          132.8152         0.464165   
    255. A(Zr  0,Zr  3,Zr  4)           70.9095         0.249117   
    256. A(Zr  4,Zr  3,O  26)           94.4072         0.345308   
    257. A(Zr  4,Zr  3,O   9)           38.5267         0.328339   
    258. A(Zr  4,Zr  3,O   6)           89.5921         0.338428   
    259. A(O   9,Zr  3,O  24)          139.5475         0.466604   
    260. A(Zr  0,Zr  3,O  25)           71.8468         0.358888   
    261. A(O  10,Zr  3,O  24)          111.1168         0.493423   
    262. A(Zr  0,Zr  3,O   9)           37.6751         0.323368   
    263. A(O   6,Zr  3,O  10)           84.4845         0.480026   
    264. A(O  10,Zr  3,O  27)           96.5763         0.523517   
    265. A(Zr  0,Zr  3,O  27)          112.2341         0.360413   
    266. A(O   6,Zr  3,O   9)           68.3588         0.454095   
    267. A(Zr  0,Zr  3,O  24)          102.8438         0.341616   
    268. A(Zr  0,Zr  3,O  26)          155.1905         0.339984   
    269. A(O   9,Zr  3,O  25)           89.0108         0.492422   
    270. A(O   6,Zr  3,O  25)           82.0743         0.509429   
    271. A(Zr  0,Zr  3,O  10)           86.1437         0.340014   
    272. A(O  10,Zr  3,O  26)           71.0858         0.490811   
    273. A(O  24,Zr  3,O  25)           82.6510         0.523833   
    274. A(O  10,Zr  3,O  25)          156.4478         0.521075   
    275. A(Zr  4,Zr  3,O  25)          124.6202         0.364612   
    276. A(O  24,Zr  3,O  26)           77.4105         0.493376   
    277. A(O   9,Zr  4,O  10)           66.6902         0.441625   
    278. A(O   7,Zr  4,O  10)           64.9468         0.451905   
    279. A(Zr  3,Zr  4,O  10)           35.0065         0.336365   
    280. A(O  30,Zr  4,O  31)           81.3379         0.512610   
    281. A(O  29,Zr  4,O  31)           73.7557         0.506224   
    282. A(O   7,Zr  4,O  31)           68.7277         0.461420   
    283. A(O  28,Zr  4,O  31)          124.8185         0.518956   
    284. A(O  10,Zr  4,O  31)          130.2839         0.473031   
    285. A(O   9,Zr  4,O  31)          137.1205         0.450871   
    286. A(Zr  3,Zr  4,O  31)          160.5688         0.342851   
    287. A(Zr  1,Zr  4,O  31)           93.2306         0.349679   
    288. A(O  29,Zr  4,O  30)          137.7788         0.537466   
    289. A(O  28,Zr  4,O  30)           81.8834         0.551152   
    290. A(O  10,Zr  4,O  30)           84.7668         0.501787   
    291. A(O   9,Zr  4,O  30)          141.2223         0.477968   
    292. A(O   7,Zr  4,O  30)           93.9889         0.489307   
    293. A(Zr  3,Zr  4,O   7)           92.2421         0.328887   
    294. A(Zr  3,Zr  4,O   9)           37.8644         0.322092   
    295. A(Zr  1,Zr  4,O  28)          129.0342         0.373397   
    296. A(O   9,Zr  4,O  29)           72.9363         0.472105   
    297. A(Zr  1,Zr  4,O   9)           97.1046         0.328362   
    298. A(O  28,Zr  4,O  29)           85.0455         0.544186   
    299. A(Zr  1,Zr  4,Zr  3)           72.0469         0.256911   
    300. A(Zr  3,Zr  4,O  30)          104.7261         0.361860   
    301. A(O   7,Zr  4,O  28)          164.5288         0.495305   
    302. A(Zr  1,Zr  4,O   7)           36.5020         0.335340   
    303. A(O  10,Zr  4,O  29)          137.1406         0.495565   
    304. A(O   9,Zr  4,O  28)           77.9724         0.483795   
    305. A(O   7,Zr  4,O   9)           96.7193         0.430965   
    306. A(Zr  1,Zr  4,O  30)           70.9020         0.369199   
    307. A(O  10,Zr  4,O  28)           99.7364         0.507972   
    308. A(Zr  3,Zr  4,O  28)           74.5791         0.365948   
    309. A(O   7,Zr  4,O  29)          107.4876         0.483273   
    310. A(Zr  1,Zr  4,O  29)          142.6066         0.364976   
    311. A(Zr  3,Zr  4,O  29)          110.1089         0.357747   
    312. A(Zr  1,Zr  4,O  10)           37.3736         0.343019   
    313. A(O  11,Zr  5,O  35)           97.5791         0.507931   
    314. A(O  34,Zr  5,O  35)           83.2400         0.538814   
    315. A(O  33,Zr  5,O  35)           81.8135         0.550514   
    316. A(O  32,Zr  5,O  35)          126.7794         0.519795   
    317. A(O   8,Zr  5,O  35)           78.2673         0.484112   
    318. A(O   6,Zr  5,O  35)          162.3329         0.489548   
    319. A(Zr  2,Zr  5,O  35)           73.8228         0.361190   
    320. A(O  33,Zr  5,O  34)          135.0808         0.535061   
    321. A(O  32,Zr  5,O  34)           74.1489         0.505371   
    322. A(O  11,Zr  5,O  34)          138.3183         0.493904   
    323. A(Zr  0,Zr  5,O  35)          126.7620         0.371782   
    324. A(O  32,Zr  5,O  33)           81.6589         0.516201   
    325. A(O   6,Zr  5,O  34)          111.5436         0.476136   
    326. A(Zr  2,Zr  5,O  34)          109.1446         0.352076   
    327. A(Zr  0,Zr  5,O  34)          146.4763         0.362314   
    328. A(O  11,Zr  5,O  33)           85.6867         0.504436   
    329. A(O   8,Zr  5,O  33)          143.0594         0.480816   
    330. A(O   6,Zr  5,O  33)           93.2268         0.486206   
    331. A(Zr  0,Zr  5,O  33)           71.0586         0.369423   
    332. A(O  11,Zr  5,O  32)          130.9306         0.476784   
    333. A(O   8,Zr  5,O  32)          134.9207         0.454736   
    334. A(O   6,Zr  5,O  32)           68.6022         0.459767   
    335. A(Zr  2,Zr  5,O  32)          159.1823         0.340952   
    336. A(Zr  0,Zr  5,O  32)           94.0681         0.350757   
    337. A(Zr  2,Zr  5,O   6)           91.6292         0.323262   
    338. A(Zr  0,Zr  5,Zr  2)           71.7303         0.254386   
    339. A(Zr  0,Zr  5,O   6)           36.4654         0.332379   
    340. A(O   8,Zr  5,O  34)           72.8010         0.470883   
    341. A(O   8,Zr  5,O  11)           66.7087         0.444663   
    342. A(O   6,Zr  5,O  11)           65.0332         0.449556   
    343. A(Zr  2,Zr  5,O  11)           34.8469         0.334014   
    344. A(Zr  0,Zr  5,O  11)           37.3471         0.343549   
    345. A(O   6,Zr  5,O   8)           96.4336         0.429056   
    346. A(Zr  2,Zr  5,O  33)          106.8282         0.358919   
    347. A(Zr  2,Zr  5,O   8)           37.5309         0.320083   
    348. A(Zr  0,Zr  5,O   8)           96.8597         0.329076   
    349. A(Zr  3,O   6,Zr  5)          136.2695         0.451169   
    350. A(Zr  0,O   6,Zr  5)          105.4479         0.457080   
    351. A(Zr  0,O   6,Zr  3)          110.2239         0.475696   
    352. A(Zr  2,O   7,Zr  4)          135.4579         0.458470   
    353. A(Zr  1,O   7,Zr  4)          105.6948         0.459979   
    354. A(Zr  1,O   7,Zr  2)          110.7878         0.478464   
    355. A(Zr  1,O   8,Zr  2)          105.2903         0.433407   
    356. A(Zr  2,O   8,Zr  5)          104.4375         0.431312   
    357. A(Zr  1,O   8,Zr  5)          130.5760         0.426495   
    358. A(Zr  3,O   9,Zr  4)          103.6089         0.430183   
    359. A(Zr  0,O   9,Zr  4)          131.2217         0.424313   
    360. A(Zr  0,O   9,Zr  3)          105.0741         0.433299   
    361. A(Zr  3,O  10,Zr  4)          109.1507         0.476792   
    362. A(Zr  1,O  10,Zr  4)          105.5542         0.458686   
    363. A(Zr  1,O  10,Zr  3)          143.8645         0.472094   
    364. A(Zr  2,O  11,Zr  5)          109.7444         0.475351   
    365. A(Zr  0,O  11,Zr  5)          105.7420         0.459493   
    366. A(Zr  0,O  11,Zr  2)          142.5743         0.468578   
    367. A(Zr  0,O  12,C  36)          125.1979         0.501575   
    368. A(Zr  0,O  13,C  37)          127.2403         0.504447   
    369. A(C  37,O  13,Al 68)          126.5425         0.209374   
    370. A(Zr  0,O  13,Al 68)          105.5572         0.222203   
    371. A(Zr  0,O  14,C  38)          133.5537         0.476144   
    372. A(Zr  0,O  15,C  39)          138.4473         0.508427   
    373. A(C  39,O  15,Al 68)          101.3746         0.216638   
    374. A(Zr  0,O  15,Al 68)          107.9311         0.229983   
    375. A(Zr  1,O  16,C  40)          138.8616         0.506375   
    376. A(Zr  1,O  17,C  41)          135.3375         0.477223   
    377. A(Zr  1,O  18,C  42)          127.7570         0.504691   
    378. A(Zr  1,O  19,C  43)          124.8542         0.500571   
    379. A(Zr  2,O  20,C  44)          132.1184         0.511036   
    380. A(Zr  2,O  21,C  38)          139.6720         0.478484   
    381. A(Zr  2,O  22,C  42)          130.2835         0.505842   
    382. A(Zr  2,O  23,C  45)          137.3266         0.477842   
    383. A(Zr  3,O  24,C  46)          137.4560         0.480404   
    384. A(Zr  3,O  25,C  37)          129.7413         0.506664   
    385. A(Zr  3,O  26,C  41)          139.3500         0.478779   
    386. A(Zr  3,O  27,C  47)          132.5020         0.509893   
    387. A(C  47,O  28,Al 60)          109.9249         0.206451   
    388. A(Zr  4,O  28,Al 60)          110.2468         0.220026   
    389. A(Zr  4,O  28,C  47)          130.6515         0.509478   
    390. A(Zr  4,O  29,C  39)          140.5038         0.498402   
    391. A(C  39,O  29,Al 60)           94.2753         0.214260   
    392. A(Zr  4,O  29,Al 60)          111.9289         0.224143   
    393. A(Zr  4,O  30,C  43)          126.8145         0.502078   
    394. A(Zr  4,O  31,C  45)          128.4964         0.474639   
    395. A(Zr  5,O  32,C  46)          129.5620         0.476998   
    396. A(Zr  5,O  33,C  36)          127.8229         0.503312   
    397. A(Zr  5,O  34,C  40)          139.0144         0.495100   
    398. A(Zr  5,O  35,C  44)          131.6383         0.508006   
    399. A(O  12,C  36,O  33)          126.6819         0.464240   
    400. A(O  33,C  36,H  58)          116.6763         0.363622   
    401. A(O  12,C  36,H  58)          116.6404         0.363748   
    402. A(O  13,C  37,O  25)          127.3315         0.464467   
    403. A(O  25,C  37,H  51)          116.3168         0.363937   
    404. A(O  13,C  37,H  51)          116.3511         0.363914   
    405. A(O  14,C  38,O  21)          130.0050         0.467008   
    406. A(O  21,C  38,H  50)          114.9643         0.366254   
    407. A(O  14,C  38,H  50)          115.0272         0.366455   
    408. A(O  15,C  39,O  29)          128.9232         0.468593   
    409. A(O  29,C  39,H  54)          115.4962         0.366732   
    410. A(O  15,C  39,H  54)          115.5777         0.366829   
    411. A(O  16,C  40,O  34)          128.9055         0.468387   
    412. A(O  34,C  40,H  56)          115.5406         0.366565   
    413. A(O  16,C  40,H  56)          115.5478         0.366603   
    414. A(O  17,C  41,O  26)          130.0844         0.467274   
    415. A(O  26,C  41,H  48)          114.9173         0.366453   
    416. A(O  17,C  41,H  48)          114.9920         0.366543   
    417. A(O  18,C  42,O  22)          127.4347         0.464790   
    418. A(O  22,C  42,H  49)          116.2825         0.364117   
    419. A(O  18,C  42,H  49)          116.2828         0.364153   
    420. A(O  30,C  43,H  52)          116.7341         0.363443   
    421. A(O  19,C  43,H  52)          116.6884         0.363577   
    422. A(O  19,C  43,O  30)          126.5763         0.463929   
    423. A(O  35,C  44,H  59)          116.2040         0.364939   
    424. A(O  20,C  44,H  59)          116.2444         0.364942   
    425. A(O  20,C  44,O  35)          127.5516         0.466243   
    426. A(O  31,C  45,H  55)          115.0389         0.365764   
    427. A(O  23,C  45,H  55)          115.1071         0.365309   
    428. A(O  23,C  45,O  31)          129.8527         0.465741   
    429. A(O  32,C  46,H  57)          115.0972         0.365827   
    430. A(O  24,C  46,H  57)          115.1566         0.365417   
    431. A(O  24,C  46,O  32)          129.7448         0.465960   
    432. A(O  28,C  47,H  53)          116.1451         0.364761   
    433. A(O  27,C  47,H  53)          116.2737         0.364811   
    434. A(O  27,C  47,O  28)          127.5784         0.465984   
    435. A(O  28,Al 60,O  29)           47.4241         0.127901   
    436. A(O  28,Al 60,Al 72)          126.4456         0.157025   
    437. A(O  28,Al 60,H  71)           55.7671         0.192514   
    438. A(O  28,Al 60,H  66)          128.9817         0.186420   
    439. A(O  28,Al 60,H  65)          119.0672         0.192615   
    440. A(O  28,Al 60,H  64)           59.9782         0.186348   
    441. A(O  28,Al 60,Al 61)           70.2477         0.159182   
    442. A(O  29,Al 60,Al 72)           84.6791         0.161303   
    443. A(O  29,Al 60,H  71)           50.7160         0.199025   
    444. A(O  29,Al 60,H  66)           84.9866         0.192547   
    445. A(O  29,Al 60,H  65)          160.6180         0.199133   
    446. A(O  29,Al 60,H  64)           76.9069         0.192471   
    447. A(O  29,Al 60,Al 61)           82.0216         0.163597   
    448. A(H  71,Al 60,Al 72)          115.8957         0.281396   
    449. A(H  65,Al 60,Al 72)          112.7602         0.281584   
    450. A(H  64,Al 60,Al 72)           91.2681         0.269935   
    451. A(Al 61,Al 60,Al 72)           82.5139         0.219444   
    452. A(H  66,Al 60,H  71)          111.9880         0.364535   
    453. A(H  65,Al 60,H  71)          111.3710         0.382059   
    454. A(H  64,Al 60,H  71)          114.3242         0.364333   
    455. A(Al 61,Al 60,H  71)          123.6250         0.287499   
    456. A(H  65,Al 60,H  66)          111.4270         0.364804   
    457. A(H  64,Al 60,H  66)           97.2784         0.348121   
    458. A(Al 61,Al 60,H  66)           88.6097         0.275812   
    459. A(H  64,Al 60,H  65)          109.7128         0.364601   
    460. A(Al 61,Al 60,H  65)          107.7260         0.287693   
    461. A(Al 61,Al 60,H  64)           10.5490         0.275675   
    462. A(H  66,Al 60,Al 72)            6.1168         0.270068   
    463. A(H  67,Al 61,Al 68)          124.0260         0.287144   
    464. A(H  64,Al 61,Al 68)          101.7529         0.275384   
    465. A(H  63,Al 61,Al 68)          100.0781         0.287101   
    466. A(H  62,Al 61,Al 68)           10.1740         0.275401   
    467. A(Al 60,Al 61,Al 68)           95.3528         0.223215   
    468. A(H  64,Al 61,H  67)          113.5870         0.364913   
    469. A(H  63,Al 61,H  67)          109.2162         0.382259   
    470. A(H  62,Al 61,H  67)          113.9632         0.364938   
    471. A(Al 60,Al 61,H  67)          124.0020         0.287685   
    472. A(H  63,Al 61,H  64)          106.2704         0.364853   
    473. A(H  62,Al 61,H  64)          106.7369         0.348561   
    474. A(Al 60,Al 61,H  64)           10.5580         0.275893   
    475. A(H  62,Al 61,H  63)          106.5676         0.364879   
    476. A(Al 60,Al 61,H  63)           99.4672         0.287643   
    477. A(Al 60,Al 61,H  62)          101.6674         0.275910   
    478. A(Al 61,H  62,Al 68)          159.6576         0.348393   
    479. A(Al 60,H  64,Al 61)          158.8929         0.348234   
    480. A(Al 60,H  66,Al 72)          167.7681         0.348217   
    481. A(O  13,Al 68,H  75)           62.3130         0.195323   
    482. A(O  13,Al 68,Al 72)          122.3817         0.158918   
    483. A(O  13,Al 68,H  70)          120.7316         0.195378   
    484. A(O  13,Al 68,H  69)          125.8730         0.189052   
    485. A(O  13,Al 68,H  62)           53.3494         0.189019   
    486. A(O  13,Al 68,Al 61)           63.1521         0.160874   
    487. A(O  15,Al 68,H  75)           53.5648         0.201101   
    488. A(O  15,Al 68,Al 72)           82.3395         0.162717   
    489. A(O  15,Al 68,H  70)          163.3542         0.201158   
    490. A(O  15,Al 68,H  69)           83.1247         0.194488   
    491. A(O  15,Al 68,H  62)           75.0909         0.194454   
    492. A(O  15,Al 68,Al 61)           79.5012         0.164780   
    493. A(Al 72,Al 68,H  75)          115.5397         0.281612   
    494. A(H  70,Al 68,H  75)          111.4386         0.382055   
    495. A(H  69,Al 68,H  75)          111.7353         0.364627   
    496. A(H  62,Al 68,H  75)          114.6215         0.364537   
    497. A(Al 61,Al 68,H  75)          123.4582         0.287002   
    498. A(H  70,Al 68,Al 72)          112.9868         0.281712   
    499. A(H  69,Al 68,Al 72)            6.2433         0.270251   
    500. A(H  62,Al 68,Al 72)           91.0187         0.270192   
    501. A(O  13,Al 68,O  15)           48.5930         0.129692   
    502. A(Al 61,Al 68,Al 72)           82.4808         0.219205   
    503. A(H  69,Al 68,H  70)          111.3886         0.364770   
    504. A(H  62,Al 68,H  70)          109.7018         0.364680   
    505. A(Al 61,Al 68,H  70)          107.9988         0.287105   
    506. A(H  62,Al 68,H  69)           97.1952         0.348285   
    507. A(Al 61,Al 68,H  69)           88.7166         0.275324   
    508. A(Al 61,Al 68,H  62)           10.1685         0.275263   
    509. A(Al 68,H  69,Al 72)          167.5149         0.348279   
    510. A(H  73,Al 72,H  74)          111.8908         0.381984   
    511. A(H  69,Al 72,H  74)          108.3698         0.364602   
    512. A(Al 68,Al 72,H  74)          113.0877         0.281662   
    513. A(H  66,Al 72,H  74)          108.8056         0.364567   
    514. A(Al 60,Al 72,H  74)          113.5354         0.281489   
    515. A(H  69,Al 72,H  73)          111.4068         0.364536   
    516. A(Al 68,Al 72,H  73)          111.9956         0.281616   
    517. A(H  66,Al 72,H  73)          110.7168         0.364501   
    518. A(Al 60,Al 72,H  73)          111.1533         0.281443   
    519. A(Al 68,Al 72,H  69)            6.2417         0.270188   
    520. A(H  66,Al 72,H  69)          105.4008         0.348156   
    521. A(Al 60,Al 72,H  69)           99.8597         0.270025   
    522. A(H  66,Al 72,Al 68)           99.6638         0.270165   
    523. A(Al 60,Al 72,Al 68)           94.0204         0.215547   
    524. A(Al 60,Al 72,H  66)            6.1152         0.270002   
    525. D(Zr  5,Zr  2,Zr  1,Zr  4)    103.4457         0.010000   
    526. D(Zr  5,Zr  2,Zr  1,O   7)    120.0456         0.010000   
    527. D(O   7,Zr  2,Zr  1,Zr  4)    -16.5999         0.010000   
    528. D(O   6,Zr  3,Zr  0,Zr  5)     16.4570         0.010000   
    529. D(Zr  4,Zr  3,Zr  0,O   6)   -119.1146         0.010000   
    530. D(Zr  4,Zr  3,Zr  0,Zr  5)   -102.6576         0.010000   
    531. D(Zr  1,Zr  4,Zr  3,O   6)     74.6168         0.010000   
    532. D(O   7,Zr  4,Zr  3,Zr  0)     73.5716         0.010000   
    533. D(O   7,Zr  4,Zr  1,Zr  2)     15.3678         0.010000   
    534. D(Zr  1,Zr  4,Zr  3,Zr  0)    104.4440         0.010000   
    535. D(Zr  3,Zr  4,Zr  1,Zr  2)   -105.0952         0.010000   
    536. D(Zr  3,Zr  4,Zr  1,O   7)   -120.4630         0.010000   
    537. D(Zr  2,Zr  5,Zr  0,O   6)    119.8075         0.010000   
    538. D(O   6,Zr  5,Zr  0,Zr  3)    -15.3020         0.010000   
    539. D(Zr  2,Zr  5,Zr  0,Zr  3)    104.5055         0.010000   
    540. D(O   6,Zr  5,Zr  2,Zr  1)    -73.9104         0.010000   
    541. D(Zr  0,Zr  5,Zr  2,O   7)    -75.5584         0.010000   
    542. D(Zr  0,Zr  5,Zr  2,Zr  1)   -104.9690         0.010000   
    543. D(Zr  0,O   6,Zr  5,O   8)    -92.8460         0.010000   
    544. D(Zr  0,O   6,Zr  5,Zr  2)    -55.5170         0.010000   
    545. D(Zr  5,O   6,Zr  3,Zr  0)   -142.7253         0.010000   
    546. D(Zr  3,O   6,Zr  0,O   9)    -22.4480         0.010000   
    547. D(Zr  0,O   6,Zr  3,Zr  4)     55.6515         0.010000   
    548. D(Zr  5,O   6,Zr  0,Zr  3)    154.2561         0.010000   
    549. D(Zr  0,O   6,Zr  3,O   9)     22.6695         0.010000   
    550. D(Zr  3,O   6,Zr  5,Zr  0)    143.8714         0.010000   
    551. D(Zr  3,O   6,Zr  0,Zr  5)   -154.2561         0.010000   
    552. D(Zr  1,O   7,Zr  2,Zr  5)    -54.5925         0.010000   
    553. D(Zr  2,O   7,Zr  1,O   8)     22.0163         0.010000   
    554. D(Zr  4,O   7,Zr  1,Zr  2)   -153.9692         0.010000   
    555. D(Zr  2,O   7,Zr  1,Zr  4)    153.9692         0.010000   
    556. D(Zr  2,O   7,Zr  4,Zr  1)   -144.2024         0.010000   
    557. D(Zr  1,O   7,Zr  4,Zr  3)     55.1465         0.010000   
    558. D(Zr  4,O   7,Zr  2,Zr  1)    142.9633         0.010000   
    559. D(Zr  1,O   7,Zr  2,O   8)    -22.1613         0.010000   
    560. D(Zr  1,O   7,Zr  4,O   9)     92.8747         0.010000   
    561. D(Zr  2,O   8,Zr  5,Zr  0)     47.5524         0.010000   
    562. D(Zr  1,O   8,Zr  5,Zr  0)    -77.8275         0.010000   
    563. D(Zr  1,O   8,Zr  5,Zr  2)   -125.3799         0.010000   
    564. D(Zr  5,O   8,Zr  2,Zr  1)   -140.0585         0.010000   
    565. D(Zr  1,O   8,Zr  2,O   7)     20.5658         0.010000   
    566. D(Zr  1,O   8,Zr  2,Zr  5)    140.0585         0.010000   
    567. D(Zr  5,O   8,Zr  1,Zr  2)    125.0593         0.010000   
    568. D(Zr  2,O   8,Zr  1,O   7)    -20.6521         0.010000   
    569. D(Zr  2,O   8,Zr  1,Zr  4)    -47.8764         0.010000   
    570. D(Zr  3,O   9,Zr  4,Zr  1)    -48.2118         0.010000   
    571. D(Zr  0,O   9,Zr  4,Zr  3)    124.6000         0.010000   
    572. D(Zr  0,O   9,Zr  3,O   6)    -21.0392         0.010000   
    573. D(Zr  0,O   9,Zr  4,Zr  1)     76.3882         0.010000   
    574. D(Zr  4,O   9,Zr  3,Zr  0)    140.1188         0.010000   
    575. D(Zr  4,O   9,Zr  0,Zr  3)   -124.0513         0.010000   
    576. D(Zr  3,O   9,Zr  0,Zr  5)     48.7515         0.010000   
    577. D(Zr  0,O   9,Zr  3,Zr  4)   -140.1188         0.010000   
    578. D(Zr  3,O   9,Zr  0,O   6)     21.2537         0.010000   
    579. D(Zr  1,O  10,Zr  4,O   7)    -31.8079         0.010000   
    580. D(Zr  1,O  10,Zr  4,Zr  3)   -169.7688         0.010000   
    581. D(Zr  4,O  10,Zr  3,Zr  0)    -62.1930         0.010000   
    582. D(Zr  1,O  10,Zr  3,Zr  4)    163.1315         0.010000   
    583. D(Zr  1,O  10,Zr  3,Zr  0)    100.9385         0.010000   
    584. D(Zr  4,O  10,Zr  1,Zr  2)     61.5632         0.010000   
    585. D(Zr  3,O  10,Zr  1,Zr  4)   -163.4688         0.010000   
    586. D(Zr  3,O  10,Zr  4,Zr  1)    169.7688         0.010000   
    587. D(Zr  3,O  10,Zr  1,Zr  2)   -101.9056         0.010000   
    588. D(Zr  2,O  11,Zr  5,Zr  0)   -167.9046         0.010000   
    589. D(Zr  0,O  11,Zr  5,Zr  2)    167.9046         0.010000   
    590. D(Zr  5,O  11,Zr  2,Zr  1)     60.5337         0.010000   
    591. D(Zr  0,O  11,Zr  2,Zr  5)   -160.6185         0.010000   
    592. D(Zr  0,O  11,Zr  2,Zr  1)   -100.0848         0.010000   
    593. D(Zr  5,O  11,Zr  0,Zr  3)    -61.5829         0.010000   
    594. D(Zr  0,O  11,Zr  5,O   6)     31.5496         0.010000   
    595. D(Zr  2,O  11,Zr  0,Zr  5)    161.0636         0.010000   
    596. D(Zr  2,O  11,Zr  0,Zr  3)     99.4807         0.010000   
    597. D(C  36,O  12,Zr  0,Zr  5)     30.6780         0.010000   
    598. D(C  36,O  12,Zr  0,Zr  3)     95.0581         0.010000   
    599. D(Al 68,O  13,Zr  0,Zr  3)   -141.7807         0.010000   
    600. D(C  37,O  13,Zr  0,Zr  5)    -18.7013         0.010000   
    601. D(C  37,O  13,Zr  0,Zr  3)     29.3292         0.010000   
    602. D(C  38,O  14,Zr  0,Zr  5)     70.1908         0.010000   
    603. D(C  38,O  14,Zr  0,Zr  3)     37.6986         0.010000   
    604. D(Al 68,O  15,Zr  0,Zr  3)     98.9459         0.010000   
    605. D(C  39,O  15,Zr  0,Zr  5)     52.7169         0.010000   
    606. D(C  39,O  15,Zr  0,Zr  3)    -33.7097         0.010000   
    607. D(C  40,O  16,Zr  1,Zr  4)    -62.1284         0.010000   
    608. D(C  40,O  16,Zr  1,Zr  2)     23.2913         0.010000   
    609. D(C  41,O  17,Zr  1,Zr  4)    -65.7468         0.010000   
    610. D(C  41,O  17,Zr  1,Zr  2)    -33.7954         0.010000   
    611. D(C  42,O  18,Zr  1,Zr  4)     21.2238         0.010000   
    612. D(C  42,O  18,Zr  1,Zr  2)    -26.1207         0.010000   
    613. D(C  43,O  19,Zr  1,Zr  4)    -32.2048         0.010000   
    614. D(C  43,O  19,Zr  1,Zr  2)    -95.6762         0.010000   
    615. D(C  44,O  20,Zr  2,Zr  5)      8.3698         0.010000   
    616. D(C  44,O  20,Zr  2,Zr  1)    -51.0280         0.010000   
    617. D(C  38,O  21,Zr  2,Zr  5)    -28.8969         0.010000   
    618. D(C  38,O  21,Zr  2,Zr  1)     26.3851         0.010000   
    619. D(C  42,O  22,Zr  2,Zr  5)     25.5465         0.010000   
    620. D(C  42,O  22,Zr  2,Zr  1)    -25.5063         0.010000   
    621. D(C  45,O  23,Zr  2,Zr  5)    -67.2011         0.010000   
    622. D(C  45,O  23,Zr  2,Zr  1)      5.0952         0.010000   
    623. D(C  46,O  24,Zr  3,Zr  4)     71.7216         0.010000   
    624. D(C  46,O  24,Zr  3,Zr  0)     -3.2653         0.010000   
    625. D(C  37,O  25,Zr  3,Zr  4)    -24.4437         0.010000   
    626. D(C  37,O  25,Zr  3,Zr  0)     25.4200         0.010000   
    627. D(C  41,O  26,Zr  3,Zr  4)     36.3656         0.010000   
    628. D(C  41,O  26,Zr  3,Zr  0)    -15.6795         0.010000   
    629. D(C  47,O  27,Zr  3,Zr  4)     -6.5025         0.010000   
    630. D(C  47,O  27,Zr  3,Zr  0)     54.2267         0.010000   
    631. D(Al 60,O  28,Zr  4,Zr  1)   -177.1311         0.010000   
    632. D(C  47,O  28,Zr  4,Zr  3)    -10.3914         0.010000   
    633. D(C  47,O  28,Zr  4,Zr  1)     40.1677         0.010000   
    634. D(Al 60,O  29,Zr  4,Zr  1)   -178.6126         0.010000   
    635. D(C  39,O  29,Zr  4,Zr  3)     35.7963         0.010000   
    636. D(C  39,O  29,Zr  4,Zr  1)    -50.6759         0.010000   
    637. D(C  43,O  30,Zr  4,Zr  3)   -100.7240         0.010000   
    638. D(C  43,O  30,Zr  4,Zr  1)    -36.0820         0.010000   
    639. D(C  45,O  31,Zr  4,Zr  3)    -35.9010         0.010000   
    640. D(C  45,O  31,Zr  4,Zr  1)    -75.7250         0.010000   
    641. D(C  46,O  32,Zr  5,Zr  2)     28.6339         0.010000   
    642. D(C  46,O  32,Zr  5,Zr  0)     74.4261         0.010000   
    643. D(C  36,O  33,Zr  5,Zr  2)     97.2864         0.010000   
    644. D(C  36,O  33,Zr  5,Zr  0)     34.0341         0.010000   
    645. D(C  40,O  34,Zr  5,Zr  2)    -37.0284         0.010000   
    646. D(C  40,O  34,Zr  5,Zr  0)     48.5647         0.010000   
    647. D(C  44,O  35,Zr  5,Zr  2)      8.9981         0.010000   
    648. D(C  44,O  35,Zr  5,Zr  0)    -42.3811         0.010000   
    649. D(O  12,C  36,O  33,Zr  5)    -26.3714         0.045698   
    650. D(H  58,C  36,O  12,Zr  0)    159.2218         0.045906   
    651. D(O  33,C  36,O  12,Zr  0)    -20.3338         0.045906   
    652. D(H  58,C  36,O  33,Zr  5)    154.0733         0.045698   
    653. D(H  51,C  37,O  25,Zr  3)    164.4038         0.059616   
    654. D(O  13,C  37,O  25,Zr  3)    -15.2985         0.059616   
    655. D(H  51,C  37,O  13,Zr  0)    155.3171         0.071124   
    656. D(O  25,C  37,O  13,Al 68)    144.3403         0.071124   
    657. D(O  25,C  37,O  13,Zr  0)    -24.9807         0.071124   
    658. D(H  50,C  38,O  21,Zr  2)    168.9867         0.047321   
    659. D(O  14,C  38,O  21,Zr  2)    -10.2905         0.047321   
    660. D(H  50,C  38,O  14,Zr  0)    162.4937         0.047660   
    661. D(O  21,C  38,O  14,Zr  0)    -18.2294         0.047660   
    662. D(H  54,C  39,O  29,Zr  4)    172.4036         0.067064   
    663. D(O  15,C  39,O  29,Al 60)    125.8648         0.067064   
    664. D(O  15,C  39,O  29,Zr  4)     -6.9404         0.067064   
    665. D(H  54,C  39,O  15,Zr  0)   -173.9085         0.067297   
    666. D(O  29,C  39,O  15,Al 68)   -129.0253         0.067297   
    667. D(O  29,C  39,O  15,Zr  0)      5.4350         0.067297   
    668. D(H  56,C  40,O  34,Zr  5)    178.4372         0.048319   
    669. D(O  16,C  40,O  34,Zr  5)     -2.5151         0.048319   
    670. D(H  56,C  40,O  16,Zr  1)   -169.2317         0.048385   
    671. D(O  34,C  40,O  16,Zr  1)     11.7206         0.048385   
    672. D(H  48,C  41,O  26,Zr  3)   -174.5236         0.047580   
    673. D(O  17,C  41,O  26,Zr  3)      4.5089         0.047580   
    674. D(H  48,C  41,O  17,Zr  1)   -165.0473         0.047732   
    675. D(O  26,C  41,O  17,Zr  1)     15.9208         0.047732   
    676. D(H  49,C  42,O  22,Zr  2)   -162.1282         0.046104   
    677. D(O  18,C  42,O  22,Zr  2)     17.8382         0.046104   
    678. D(H  49,C  42,O  18,Zr  1)   -159.8116         0.046163   
    679. D(O  22,C  42,O  18,Zr  1)     20.2220         0.046163   
    680. D(H  52,C  43,O  30,Zr  4)   -152.1096         0.045506   
    681. D(O  19,C  43,O  30,Zr  4)     28.3013         0.045506   
    682. D(H  52,C  43,O  19,Zr  1)   -158.7353         0.045726   
    683. D(O  30,C  43,O  19,Zr  1)     20.8539         0.045726   
    684. D(H  59,C  44,O  35,Zr  5)    172.9002         0.047017   
    685. D(O  20,C  44,O  35,Zr  5)     -7.1678         0.047017   
    686. D(H  59,C  44,O  20,Zr  2)    174.2349         0.047021   
    687. D(O  35,C  44,O  20,Zr  2)     -5.6971         0.047021   
    688. D(H  55,C  45,O  31,Zr  4)   -162.9685         0.047091   
    689. D(O  23,C  45,O  31,Zr  4)     16.5842         0.047091   
    690. D(H  55,C  45,O  23,Zr  2)   -149.7936         0.046334   
    691. D(O  31,C  45,O  23,Zr  2)     30.6540         0.046334   
    692. D(H  57,C  46,O  32,Zr  5)    162.9746         0.047189   
    693. D(O  24,C  46,O  32,Zr  5)    -16.5674         0.047189   
    694. D(H  57,C  46,O  24,Zr  3)    149.0994         0.046504   
    695. D(O  32,C  46,O  24,Zr  3)    -31.3588         0.046504   
    696. D(H  53,C  47,O  28,Zr  4)   -170.0514         0.068775   
    697. D(O  27,C  47,O  28,Al 60)   -132.2108         0.068775   
    698. D(O  27,C  47,O  28,Zr  4)     10.5799         0.068775   
    699. D(H  53,C  47,O  27,Zr  3)   -177.5227         0.060851   
    700. D(O  28,C  47,O  27,Zr  3)      1.8453         0.060851   
    701. D(H  64,Al 60,O  29,Zr  4)     77.1513         0.010000   
    702. D(Al 61,Al 60,O  29,C  39)    -63.2600         0.010000   
    703. D(Al 61,Al 60,O  29,Zr  4)     86.5394         0.010000   
    704. D(H  64,Al 60,O  28,Zr  4)   -116.3188         0.010000   
    705. D(Al 61,Al 60,O  28,C  47)     37.0710         0.010000   
    706. D(Al 61,Al 60,O  28,Zr  4)   -113.6531         0.010000   
    707. D(H  63,Al 61,Al 60,H  64)   -130.9575         0.010000   
    708. D(H  62,Al 61,Al 60,H  65)   -137.6218         0.010000   
    709. D(H  62,Al 61,Al 60,H  64)    119.7969         0.010000   
    710. D(Al 68,H  62,Al 61,H  63)    -51.3796         0.010000   
    711. D(Al 68,H  62,Al 61,Al 60)     52.3099         0.010000   
    712. D(Al 60,H  64,Al 61,H  63)     50.8947         0.010000   
    713. D(Al 60,H  64,Al 61,H  62)    -62.5554         0.010000   
    714. D(Al 61,H  64,Al 60,H  66)     34.9706         0.010000   
    715. D(Al 61,H  64,Al 60,H  65)    -80.9403         0.010000   
    716. D(Al 72,H  66,Al 60,H  64)    -10.7583         0.010000   
    717. D(Al 72,H  66,Al 60,Al 61)     -4.7333         0.010000   
    718. D(H  70,Al 68,H  62,Al 61)     82.1040         0.010000   
    719. D(H  69,Al 68,Al 61,Al 60)     17.6804         0.010000   
    720. D(H  62,Al 68,Al 61,H  63)    130.4831         0.010000   
    721. D(H  62,Al 68,Al 61,Al 60)   -128.8881         0.010000   
    722. D(H  62,Al 68,O  15,Zr  0)    -76.4365         0.010000   
    723. D(Al 61,Al 68,O  15,C  39)     64.3269         0.010000   
    724. D(Al 61,Al 68,O  15,Zr  0)    -85.8319         0.010000   
    725. D(H  62,Al 68,O  13,Zr  0)    125.3729         0.010000   
    726. D(H  69,Al 68,H  62,Al 61)    -33.7226         0.010000   
    727. D(Al 61,Al 68,O  13,C  37)    -49.0053         0.010000   
    728. D(Al 61,Al 68,O  13,Zr  0)    122.1861         0.010000   
    729. D(Al 72,H  69,Al 68,H  62)      8.4336         0.010000   
    730. D(Al 72,H  69,Al 68,Al 61)      2.8075         0.010000   
    731. D(H  66,Al 72,H  69,Al 68)    -23.4950         0.010000   
    732. D(H  66,Al 72,Al 68,Al 61)    -20.1163         0.010000   
    733. D(Al 60,Al 72,Al 68,H  62)    -12.2061         0.010000   
    734. D(Al 60,Al 72,Al 68,Al 61)    -17.7430         0.010000   
    735. D(H  69,Al 72,H  66,Al 60)     25.3357         0.010000   
    736. D(Al 68,Al 72,H  66,Al 60)     22.8157         0.010000   
    737. D(Al 68,Al 72,Al 60,Al 61)     17.7599         0.010000   
    738. D(Al 60,Al 72,H  69,Al 68)    -20.8431         0.010000   
    739. D(H  66,Al 72,Al 60,H  64)    169.3268         0.010000   
    740. D(H  66,Al 72,Al 60,Al 61)    175.2273         0.010000   
    -----------------------------------------------------------------

Number of atoms                         .... 76
Number of degrees of freedom            .... 740


         *************************************************************
         *                GEOMETRY OPTIMIZATION CYCLE   1            *
         *************************************************************
---------------------------------
CARTESIAN COORDINATES (ANGSTROEM)
---------------------------------
  Zr    -0.246441    2.288313    1.322903
  Zr     0.286593   -2.131146   -1.450998
  Zr     1.894567   -1.065935    1.389022
  Zr    -1.818671    1.250258   -1.541472
  Zr     1.547045    0.955568   -1.949853
  Zr    -1.488310   -0.809245    1.815408
  O     -1.583249    0.913240    0.517422
  O      1.638430   -0.757754   -0.660125
  O      0.031824   -1.881002    0.687365
  O      0.039513    2.049202   -0.814912
  O     -0.266759   -0.100409   -1.737454
  O      0.314804    0.259851    1.624522
  O     -1.696864    2.463414    2.680105
  O     -1.192214    3.858823    0.559798
  O      0.870082    2.105087    3.062492
  O      1.444338    3.240247    0.922876
  O     -1.389421   -3.105186   -1.016534
  O     -0.842929   -1.942757   -3.177825
  O      1.219187   -3.709527   -0.688066
  O      1.725135   -2.301209   -2.824978
  O      1.459796   -2.133590    2.986207
  O      2.390740    0.325844    2.834536
  O      2.757639   -2.740994    0.773760
  O      3.615832   -0.220307    0.619304
  O     -3.515959    0.331104   -0.824581
  O     -2.734204    2.880533   -0.891591
  O     -2.279249   -0.085142   -3.050210
  O     -1.345743    2.365280   -3.098590
  O      0.980446    2.335679   -3.241991
  O      2.491066    2.464822   -1.016926
  O      1.763139   -0.113637   -3.616102
  O      3.508264    0.328325   -1.667145
  O     -3.447440   -0.240983    1.455894
  O     -1.781054    0.272255    3.458182
  O     -2.384578   -2.415708    0.982462
  O     -0.864758   -2.137781    3.142152
  C     -2.033801    1.546862    3.540477
  C     -2.279679    3.852389   -0.155127
  C      1.901970    1.391497    3.391029
  C      2.397335    3.196100    0.047749
  C     -2.249733   -3.183749   -0.051721
  C     -1.828118   -1.190191   -3.557973
  C      2.280981   -3.721034    0.063277
  C      2.032215   -1.385449   -3.698003
  C      0.328152   -2.494294    3.511079
  C      4.111606    0.038262   -0.554678
  C     -4.033033    0.043214    0.332776
  C     -0.206225    2.701796   -3.623252
  H     -2.347721   -1.530036   -4.447610
  H      2.834979   -4.660312    0.102511
  H      2.433110    1.731768    4.273905
  H     -2.875621    4.766806   -0.138894
  H      2.563792   -1.718743   -4.592428
  H     -0.249102    3.377885   -4.477490
  H      3.238548    3.855903    0.237090
  H      5.196404    0.014399   -0.612504
  H     -2.965462   -3.997366   -0.127363
  H     -5.119118    0.032198    0.363587
  H     -2.578649    1.882599    4.425627
  H      0.385904   -3.176402    4.359301
  Al     3.009633    5.035197   -3.036893
  Al    -0.012875    5.840997   -2.040810
  H      0.200828    5.978671   -0.391434
  H     -0.090877    7.327635   -2.615157
  H      1.390006    5.176071   -2.653373
  H      3.324178    5.870617   -4.359093
  H      3.615409    5.792881   -1.678171
  H     -1.331584    5.046556   -2.459250
  Al     0.846368    6.469937    1.068009
  H      2.434616    6.583098    0.566619
  H      0.257505    7.899418    1.462727
  H      3.527113    3.530145   -3.162789
  Al     3.881561    6.641347   -0.264696
  H      4.311313    8.145623   -0.581485
  H      4.986657    5.875266    0.594874
  H      0.675534    5.419759    2.257926

----------------------------
CARTESIAN COORDINATES (A.U.)
----------------------------
  NO LB      ZA    FRAG     MASS         X           Y           Z
   0 Zr   12.0000*   0    91.220   -0.465706    4.324285    2.499925
   1 Zr   12.0000*   0    91.220    0.541583   -4.027282   -2.741988
   2 Zr   12.0000*   0    91.220    3.580213   -2.014325    2.624872
   3 Zr   12.0000*   0    91.220   -3.436790    2.362646   -2.912960
   4 Zr   12.0000*   0    91.220    2.923492    1.805762   -3.684689
   5 Zr   12.0000*   0    91.220   -2.812499   -1.529251    3.430624
   6 O     8.0000    0    15.999   -2.991907    1.725774    0.977787
   7 O     8.0000    0    15.999    3.096184   -1.431948   -1.247456
   8 O     8.0000    0    15.999    0.060138   -3.554579    1.298931
   9 O     8.0000    0    15.999    0.074669    3.872431   -1.539960
  10 O     8.0000    0    15.999   -0.504102   -0.189746   -3.283312
  11 O     8.0000    0    15.999    0.594893    0.491047    3.069901
  12 O     8.0000    0    15.999   -3.206608    4.655178    5.064664
  13 O     8.0000    0    15.999   -2.252959    7.292118    1.057865
  14 O     8.0000    0    15.999    1.644216    3.978038    5.787272
  15 O     8.0000    0    15.999    2.729403    6.123180    1.743982
  16 O     8.0000    0    15.999   -2.625625   -5.867952   -1.920971
  17 O     8.0000    0    15.999   -1.592905   -3.671278   -6.005218
  18 O     8.0000    0    15.999    2.303929   -7.009990   -1.300256
  19 O     8.0000    0    15.999    3.260033   -4.348656   -5.338435
  20 O     8.0000    0    15.999    2.758615   -4.031902    5.643113
  21 O     8.0000    0    15.999    4.517843    0.615756    5.356496
  22 O     8.0000    0    15.999    5.211182   -5.179729    1.462194
  23 O     8.0000    0    15.999    6.832933   -0.416319    1.170314
  24 O     8.0000    0    15.999   -6.644199    0.625696   -1.558231
  25 O     8.0000    0    15.999   -5.166896    5.443418   -1.684862
  26 O     8.0000    0    15.999   -4.307157   -0.160895   -5.764061
  27 O     8.0000    0    15.999   -2.543086    4.469732   -5.855487
  28 O     8.0000    0    15.999    1.852774    4.413794   -6.126475
  29 O     8.0000    0    15.999    4.707432    4.657838   -1.921712
  30 O     8.0000    0    15.999    3.331849   -0.214743   -6.833443
  31 O     8.0000    0    15.999    6.629658    0.620444   -3.150448
  32 O     8.0000    0    15.999   -6.514718   -0.455392    2.751241
  33 O     8.0000    0    15.999   -3.365704    0.514487    6.535018
  34 O     8.0000    0    15.999   -4.506199   -4.565027    1.856584
  35 O     8.0000    0    15.999   -1.634156   -4.039821    5.937807
  36 C     6.0000    0    12.011   -3.843327    2.923146    6.690531
  37 C     6.0000    0    12.011   -4.307969    7.279961   -0.293147
  38 C     6.0000    0    12.011    3.594202    2.629548    6.408115
  39 C     6.0000    0    12.011    4.530307    6.039753    0.090233
  40 C     6.0000    0    12.011   -4.251379   -6.016413   -0.097738
  41 C     6.0000    0    12.011   -3.454643   -2.249135   -6.723594
  42 C     6.0000    0    12.011    4.310430   -7.031735    0.119575
  43 C     6.0000    0    12.011    3.840331   -2.618120   -6.988213
  44 C     6.0000    0    12.011    0.620118   -4.713532    6.634978
  45 C     6.0000    0    12.011    7.769809    0.072305   -1.048189
  46 C     6.0000    0    12.011   -7.621328    0.081663    0.628856
  47 C     6.0000    0    12.011   -0.389709    5.105654   -6.846955
  48 H     1.0000    0     1.008   -4.436549   -2.891349   -8.404765
  49 H     1.0000    0     1.008    5.357334   -8.806713    0.193717
  50 H     1.0000    0     1.008    4.597912    3.272567    8.076510
  51 H     1.0000    0     1.008   -5.434136    9.007958   -0.262471
  52 H     1.0000    0     1.008    4.844864   -3.247953   -8.678431
  53 H     1.0000    0     1.008   -0.470734    6.383278   -8.461229
  54 H     1.0000    0     1.008    6.119969    7.286600    0.448035
  55 H     1.0000    0     1.008    9.819780    0.027209   -1.157464
  56 H     1.0000    0     1.008   -5.603911   -7.553927   -0.240682
  57 H     1.0000    0     1.008   -9.673731    0.060845    0.687080
  58 H     1.0000    0     1.008   -4.872940    3.557597    8.363223
  59 H     1.0000    0     1.008    0.729253   -6.002530    8.237884
  60 Al   13.0000    0    26.982    5.687383    9.515144   -5.738896
  61 Al   13.0000    0    26.982   -0.024331   11.037886   -3.856573
  62 H     1.0000    0     1.008    0.379509   11.298051   -0.739703
  63 H     1.0000    0     1.008   -0.171732   13.847223   -4.941930
  64 H     1.0000    0     1.008    2.626730    9.781357   -5.014149
  65 H     1.0000    0     1.008    6.281786   11.093858   -8.237491
  66 H     1.0000    0     1.008    6.832132   10.946959   -3.171283
  67 H     1.0000    0     1.008   -2.516329    9.536610   -4.647310
  68 Al   13.0000    0    26.982    1.599404   12.226408    2.018245
  69 H     1.0000    0     1.008    4.600757   12.440252    1.070755
  70 H     1.0000    0     1.008    0.486615   14.927738    2.764154
  71 H     1.0000    0     1.008    6.665278    6.671007   -5.976804
  72 Al   13.0000    0    26.982    7.335088   12.550328   -0.500204
  73 H     1.0000    0     1.008    8.147201   15.392996   -1.098847
  74 H     1.0000    0     1.008    9.423416   11.102643    1.124148
  75 H     1.0000    0     1.008    1.276574   10.241861    4.266862
* core charge reduced due to ECP

--------------------------------
INTERNAL COORDINATES (ANGSTROEM)
--------------------------------
 Zr     0   0   0     0.000000000000     0.00000000     0.00000000
 Zr     1   0   0     5.245023326017     0.00000000     0.00000000
 Zr     2   1   0     3.433069854209    49.35682823     0.00000000
 Zr     1   2   3     3.428426710785    49.43044902   178.88539938
 Zr     2   1   3     3.371260869392    49.06305833   260.96824918
 Zr     1   2   3     3.373376179750    48.77016209   279.35177064
 O      1   2   3     2.080067518473    45.85297264   226.78576323
 O      2   1   3     2.083061830763    46.33991297   312.79544241
 O      3   2   1     2.150923195793    37.52742447    75.88040193
 O      4   1   2     2.149197223052    37.67510539   283.78315836
 O      4   1   2     2.066674119572    86.14368020   342.02000393
 O      3   2   1     2.075769959325    86.30580164    18.64223439
 O      1   2   3     1.994086769690   120.52135649   262.86503317
 O      1   2   3     1.985778720236   120.76794380   164.67218200
 O      1   2   3     2.075178318219   108.31628654   352.03511081
 O      1   2   3     1.981144444027   102.20139001    70.78202336
 O      2   1   3     1.986589216637   102.22396027   107.94277146
 O      2   1   3     2.072014136665   107.98376998   187.54988871
 O      2   1   3     1.985719510469   120.94996028    15.79827071
 O      2   1   3     1.996533660595   120.59398466   276.43891656
 O      3   2   1     1.969748976304   113.52958522   112.43316679
 O      3   2   1     2.067061556402   154.13818127   350.73613263
 O      3   2   1     1.982237264488    71.63716294   186.69573068
 O      3   2   1     2.066472373313   102.06199527   264.35813620
 O      4   1   2     2.059020299519   102.84377913    92.81255113
 O      4   1   2     1.979479422903    71.84684742   170.52476928
 O      4   1   2     2.066813221899   155.19052782     5.08016925
 O      4   1   2     1.972701559411   112.23412461   246.48517224
 O      5   2   1     1.973667068722   129.03422692   256.14479223
 O      5   2   1     2.009819203901   142.60661301    47.50088321
 O      5   2   1     1.991552686910    70.90195412   194.37883277
 O      5   2   1     2.078397190572    93.23062233   114.70059983
 O      6   1   2     2.071318595427    94.06810766   247.89866353
 O      6   1   2     1.988478556276    71.05862101   168.16166332
 O      6   1   2     2.019361168733   146.47633216   315.04013111
 O      6   1   2     1.978402052988   126.76200054   104.54019858
 C     13   1   2     1.301473668490   125.19794156    43.54987354
 C     26   4   1     1.301336897614   129.74130559    25.42000782
 C     15   1   2     1.296896128657   133.55373007    24.30169965
 C     16   1   2     1.294604075905   138.44734368    17.23676344
 C     17   2   1     1.295057801738   138.86160338   332.41185603
[...]
Pressure            ...     1.00 atm
Total Mass          ...  1303.54 AMU
Quasi RRHO          ...     True
Cut-Off Frequency   ...     1.00 cm^-1

Throughout the following assumptions are being made:
  (1) The electronic state is orbitally nondegenerate
  (2) There are no thermally accessible electronically excited states
  (3) Hindered rotations indicated by low frequency modes are not
      treated as such but are treated as vibrations and this may
      cause some error
  (4) All equations used are the standard statistical mechanics
      equations for an ideal gas
  (5) All vibrations are strictly harmonic

freq.      16.70  E(vib)   ...       0.57 
freq.      16.95  E(vib)   ...       0.57 
freq.      25.08  E(vib)   ...       0.56 
freq.      25.80  E(vib)   ...       0.56 
freq.      31.79  E(vib)   ...       0.55 
freq.      35.39  E(vib)   ...       0.54 
freq.      43.42  E(vib)   ...       0.53 
freq.      52.22  E(vib)   ...       0.52 
freq.      57.84  E(vib)   ...       0.51 
freq.      79.00  E(vib)   ...       0.49 
freq.      79.69  E(vib)   ...       0.49 
freq.      84.24  E(vib)   ...       0.48 
freq.      93.41  E(vib)   ...       0.47 
freq.      94.32  E(vib)   ...       0.47 
freq.      97.10  E(vib)   ...       0.46 
freq.      99.13  E(vib)   ...       0.46 
freq.     101.01  E(vib)   ...       0.46 
freq.     104.39  E(vib)   ...       0.46 
freq.     106.10  E(vib)   ...       0.45 
freq.     108.74  E(vib)   ...       0.45 
freq.     109.75  E(vib)   ...       0.45 
freq.     115.15  E(vib)   ...       0.44 
freq.     117.66  E(vib)   ...       0.44 
freq.     119.17  E(vib)   ...       0.44 
freq.     128.51  E(vib)   ...       0.43 
freq.     142.79  E(vib)   ...       0.41 
freq.     149.48  E(vib)   ...       0.40 
freq.     150.24  E(vib)   ...       0.40 
freq.     150.69  E(vib)   ...       0.40 
freq.     151.30  E(vib)   ...       0.40 
freq.     152.16  E(vib)   ...       0.40 
freq.     154.86  E(vib)   ...       0.40 
freq.     158.45  E(vib)   ...       0.39 
freq.     159.51  E(vib)   ...       0.39 
freq.     161.02  E(vib)   ...       0.39 
freq.     162.98  E(vib)   ...       0.39 
freq.     166.87  E(vib)   ...       0.39 
freq.     167.10  E(vib)   ...       0.39 
freq.     169.93  E(vib)   ...       0.38 
freq.     170.50  E(vib)   ...       0.38 
freq.     171.45  E(vib)   ...       0.38 
freq.     186.71  E(vib)   ...       0.37 
freq.     187.66  E(vib)   ...       0.36 
freq.     189.22  E(vib)   ...       0.36 
freq.     192.67  E(vib)   ...       0.36 
freq.     194.25  E(vib)   ...       0.36 
freq.     195.67  E(vib)   ...       0.36 
freq.     203.51  E(vib)   ...       0.35 
freq.     208.14  E(vib)   ...       0.34 
freq.     212.55  E(vib)   ...       0.34 
freq.     213.60  E(vib)   ...       0.34 
freq.     228.56  E(vib)   ...       0.32 
freq.     230.87  E(vib)   ...       0.32 
freq.     232.97  E(vib)   ...       0.32 
freq.     237.92  E(vib)   ...       0.32 
freq.     243.34  E(vib)   ...       0.31 
freq.     254.59  E(vib)   ...       0.30 
freq.     258.31  E(vib)   ...       0.30 
freq.     260.82  E(vib)   ...       0.30 
freq.     261.44  E(vib)   ...       0.30 
freq.     262.04  E(vib)   ...       0.29 
freq.     262.19  E(vib)   ...       0.29 
freq.     263.47  E(vib)   ...       0.29 
freq.     265.80  E(vib)   ...       0.29 
freq.     267.92  E(vib)   ...       0.29 
freq.     272.13  E(vib)   ...       0.29 
freq.     272.91  E(vib)   ...       0.29 
freq.     274.73  E(vib)   ...       0.28 
freq.     275.57  E(vib)   ...       0.28 
freq.     277.60  E(vib)   ...       0.28 
freq.     279.85  E(vib)   ...       0.28 
freq.     282.72  E(vib)   ...       0.28 
freq.     288.80  E(vib)   ...       0.27 
freq.     289.53  E(vib)   ...       0.27 
freq.     292.81  E(vib)   ...       0.27 
freq.     294.02  E(vib)   ...       0.27 
freq.     300.68  E(vib)   ...       0.26 
freq.     301.73  E(vib)   ...       0.26 
freq.     306.38  E(vib)   ...       0.26 
freq.     306.83  E(vib)   ...       0.26 
freq.     309.84  E(vib)   ...       0.26 
freq.     313.78  E(vib)   ...       0.25 
freq.     315.51  E(vib)   ...       0.25 
freq.     317.34  E(vib)   ...       0.25 
freq.     319.47  E(vib)   ...       0.25 
freq.     321.95  E(vib)   ...       0.25 
freq.     325.75  E(vib)   ...       0.24 
freq.     339.66  E(vib)   ...       0.23 
freq.     340.45  E(vib)   ...       0.23 
freq.     350.43  E(vib)   ...       0.23 
freq.     352.24  E(vib)   ...       0.23 
freq.     356.52  E(vib)   ...       0.22 
freq.     359.05  E(vib)   ...       0.22 
freq.     367.79  E(vib)   ...       0.21 
freq.     381.87  E(vib)   ...       0.21 
freq.     383.55  E(vib)   ...       0.20 
freq.     384.65  E(vib)   ...       0.20 
freq.     394.36  E(vib)   ...       0.20 
freq.     399.10  E(vib)   ...       0.19 
freq.     399.55  E(vib)   ...       0.19 
freq.     402.35  E(vib)   ...       0.19 
freq.     412.40  E(vib)   ...       0.19 
freq.     415.67  E(vib)   ...       0.18 
freq.     419.25  E(vib)   ...       0.18 
freq.     420.39  E(vib)   ...       0.18 
freq.     421.35  E(vib)   ...       0.18 
freq.     423.34  E(vib)   ...       0.18 
freq.     434.82  E(vib)   ...       0.17 
freq.     467.66  E(vib)   ...       0.16 
freq.     474.49  E(vib)   ...       0.15 
freq.     479.17  E(vib)   ...       0.15 
freq.     486.49  E(vib)   ...       0.15 
freq.     506.50  E(vib)   ...       0.14 
freq.     529.10  E(vib)   ...       0.13 
freq.     540.46  E(vib)   ...       0.12 
freq.     567.56  E(vib)   ...       0.11 
freq.     617.83  E(vib)   ...       0.09 
freq.     657.77  E(vib)   ...       0.08 
freq.     661.11  E(vib)   ...       0.08 
freq.     668.93  E(vib)   ...       0.08 
freq.     672.46  E(vib)   ...       0.08 
freq.     675.75  E(vib)   ...       0.08 
freq.     679.12  E(vib)   ...       0.08 
freq.     684.40  E(vib)   ...       0.07 
freq.     688.62  E(vib)   ...       0.07 
freq.     699.76  E(vib)   ...       0.07 
freq.     708.59  E(vib)   ...       0.07 
freq.     715.79  E(vib)   ...       0.07 
freq.     731.89  E(vib)   ...       0.06 
freq.     733.00  E(vib)   ...       0.06 
freq.     734.00  E(vib)   ...       0.06 
freq.     734.23  E(vib)   ...       0.06 
freq.     734.87  E(vib)   ...       0.06 
freq.     736.89  E(vib)   ...       0.06 
freq.     737.72  E(vib)   ...       0.06 
freq.     738.53  E(vib)   ...       0.06 
freq.     738.66  E(vib)   ...       0.06 
freq.     738.97  E(vib)   ...       0.06 
freq.     739.30  E(vib)   ...       0.06 
freq.     740.00  E(vib)   ...       0.06 
freq.     742.09  E(vib)   ...       0.06 
freq.     744.16  E(vib)   ...       0.06 
freq.     783.02  E(vib)   ...       0.05 
freq.     997.59  E(vib)   ...       0.02 
freq.     998.67  E(vib)   ...       0.02 
freq.     998.74  E(vib)   ...       0.02 
freq.     999.40  E(vib)   ...       0.02 
freq.    1000.37  E(vib)   ...       0.02 
freq.    1001.23  E(vib)   ...       0.02 
freq.    1003.55  E(vib)   ...       0.02 
freq.    1004.77  E(vib)   ...       0.02 
freq.    1005.78  E(vib)   ...       0.02 
freq.    1006.29  E(vib)   ...       0.02 
freq.    1006.62  E(vib)   ...       0.02 
freq.    1007.02  E(vib)   ...       0.02 
freq.    1057.49  E(vib)   ...       0.02 
freq.    1103.91  E(vib)   ...       0.02 
freq.    1351.74  E(vib)   ...       0.01 
freq.    1352.78  E(vib)   ...       0.01 
freq.    1354.07  E(vib)   ...       0.01 
freq.    1354.66  E(vib)   ...       0.01 
freq.    1355.23  E(vib)   ...       0.01 
freq.    1355.86  E(vib)   ...       0.01 
freq.    1356.76  E(vib)   ...       0.01 
freq.    1356.99  E(vib)   ...       0.01 
freq.    1357.03  E(vib)   ...       0.01 
freq.    1357.53  E(vib)   ...       0.01 
freq.    1358.44  E(vib)   ...       0.01 
freq.    1358.73  E(vib)   ...       0.01 
freq.    1360.26  E(vib)   ...       0.01 
freq.    1361.51  E(vib)   ...       0.01 
freq.    1361.95  E(vib)   ...       0.01 
freq.    1362.15  E(vib)   ...       0.01 
freq.    1366.20  E(vib)   ...       0.01 
freq.    1366.92  E(vib)   ...       0.01 
freq.    1367.11  E(vib)   ...       0.01 
freq.    1368.27  E(vib)   ...       0.01 
freq.    1370.05  E(vib)   ...       0.01 
freq.    1372.82  E(vib)   ...       0.01 
freq.    1374.22  E(vib)   ...       0.01 
freq.    1382.43  E(vib)   ...       0.01 
freq.    1541.84  E(vib)   ...       0.00 
freq.    1550.10  E(vib)   ...       0.00 
freq.    1566.49  E(vib)   ...       0.00 
freq.    1567.72  E(vib)   ...       0.00 
freq.    1571.25  E(vib)   ...       0.00 
freq.    1578.54  E(vib)   ...       0.00 
freq.    1583.05  E(vib)   ...       0.00 
freq.    1632.73  E(vib)   ...       0.00 
freq.    1634.77  E(vib)   ...       0.00 
freq.    1637.90  E(vib)   ...       0.00 
freq.    1640.04  E(vib)   ...       0.00 
freq.    1640.76  E(vib)   ...       0.00 
freq.    1651.98  E(vib)   ...       0.00 
freq.    1739.62  E(vib)   ...       0.00 
freq.    1863.24  E(vib)   ...       0.00 
freq.    1869.31  E(vib)   ...       0.00 
freq.    1874.30  E(vib)   ...       0.00 
freq.    1886.44  E(vib)   ...       0.00 
freq.    1905.57  E(vib)   ...       0.00 
freq.    1907.16  E(vib)   ...       0.00 
freq.    1911.36  E(vib)   ...       0.00 
freq.    1913.86  E(vib)   ...       0.00 
freq.    1916.04  E(vib)   ...       0.00 
freq.    1974.21  E(vib)   ...       0.00 
freq.    2865.32  E(vib)   ...       0.00 
freq.    2888.16  E(vib)   ...       0.00 
freq.    2889.24  E(vib)   ...       0.00 
freq.    2890.31  E(vib)   ...       0.00 
freq.    2894.65  E(vib)   ...       0.00 
freq.    2896.63  E(vib)   ...       0.00 
freq.    2899.26  E(vib)   ...       0.00 
freq.    2901.45  E(vib)   ...       0.00 
freq.    2903.39  E(vib)   ...       0.00 
freq.    2903.69  E(vib)   ...       0.00 
freq.    2904.64  E(vib)   ...       0.00 
freq.    2906.43  E(vib)   ...       0.00 

------------
INNER ENERGY
------------

The inner energy is: U= E(el) + E(ZPE) + E(vib) + E(rot) + E(trans)
    E(el)   - is the total energy from the electronic structure calculation
              = E(kin-el) + E(nuc-el) + E(el-el) + E(nuc-nuc)
    E(ZPE)  - the the zero temperature vibrational energy from the frequency calculation
    E(vib)  - the the finite temperature correction to E(ZPE) due to population
              of excited vibrational states
    E(rot)  - is the rotational thermal energy
    E(trans)- is the translational thermal energy

Summary of contributions to the inner energy U:
Electronic energy                ...  -3976.49992367 Eh
Zero point energy                ...      0.38993185 Eh     244.69 kcal/mol
Thermal vibrational correction   ...      0.06351449 Eh      39.86 kcal/mol
Thermal rotational correction    ...      0.00141627 Eh       0.89 kcal/mol
Thermal translational correction ...      0.00141627 Eh       0.89 kcal/mol
-----------------------------------------------------------------------
Total thermal energy                  -3976.04364478 Eh


Summary of corrections to the electronic energy:
(perhaps to be used in another calculation)
Total thermal correction                  0.06634704 Eh      41.63 kcal/mol
Non-thermal (ZPE) correction              0.38993185 Eh     244.69 kcal/mol
-----------------------------------------------------------------------
Total correction                          0.45627889 Eh     286.32 kcal/mol


--------
ENTHALPY
--------

The enthalpy is H = U + kB*T
                kB is Boltzmann's constant
Total thermal energy              ...  -3976.04364478 Eh 
Thermal Enthalpy correction       ...      0.00094421 Eh       0.59 kcal/mol
-----------------------------------------------------------------------
Total Enthalpy                    ...  -3976.04270057 Eh


Note: Only C1 symmetry has been detected, increase convergence thresholds 
      if your molecule has a higher symmetry. Symmetry factor of 1.0 is   
      used for the rotational entropy correction. 
 

Note: Rotational entropy computed according to Herzberg 
Infrared and Raman Spectra, Chapter V,1, Van Nostrand Reinhold, 1945 
Point Group:  C1, Symmetry Number:   1  
Rotational constants in cm-1:     0.001725     0.001108     0.001073 

Vibrational entropy computed according to the QRRHO of S. Grimme
Chem.Eur.J. 2012 18 9955 using a reference frequency of 100.0 cm-1


-------
ENTROPY
-------

The entropy contributions are T*S = T*(S(el)+S(vib)+S(rot)+S(trans))
     S(el)   - electronic entropy
     S(vib)  - vibrational entropy
     S(rot)  - rotational entropy
     S(trans)- translational entropy
The entropies will be listed as multiplied by the temperature to get
units of energy

Electronic entropy                ...      0.00000000 Eh      0.00 kcal/mol
Vibrational entropy               ...      0.11443067 Eh     71.81 kcal/mol
Rotational entropy                ...      0.01895514 Eh     11.89 kcal/mol
Translational entropy             ...      0.02250776 Eh     14.12 kcal/mol
-----------------------------------------------------------------------
Final entropy term                ...      0.15589356 Eh     97.82 kcal/mol

In case the symmetry of your molecule has not been determined correctly
or in case you have a reason to use a different symmetry number we print 
out the resulting rotational entropy values for sn=1,12:

 non-linear molecules -----------------------------------
|  sn= 1 | S(rot)=       0.01895514 Eh     11.89 kcal/mol|
|  sn= 2 | S(rot)=       0.01830068 Eh     11.48 kcal/mol|
|  sn= 3 | S(rot)=       0.01791785 Eh     11.24 kcal/mol|
|  sn= 4 | S(rot)=       0.01764623 Eh     11.07 kcal/mol|
|  sn= 5 | S(rot)=       0.01743554 Eh     10.94 kcal/mol|
|  sn= 6 | S(rot)=       0.01726339 Eh     10.83 kcal/mol|
|  sn= 7 | S(rot)=       0.01711785 Eh     10.74 kcal/mol|
|  sn= 8 | S(rot)=       0.01699177 Eh     10.66 kcal/mol|
|  sn= 9 | S(rot)=       0.01688056 Eh     10.59 kcal/mol|
|  sn=10 | S(rot)=       0.01678108 Eh     10.53 kcal/mol|
|  sn=11 | S(rot)=       0.01669109 Eh     10.47 kcal/mol|
|  sn=12 | S(rot)=       0.01660894 Eh     10.42 kcal/mol|
 linear molecules ---------------------------------------
|  Dinfh | S(rot)=       0.01178143 Eh      7.39 kcal/mol|
|  Cinfv | S(rot)=       0.01243589 Eh      7.80 kcal/mol|
 --------------------------------------------------------


-------------------
GIBBS FREE ENERGY
-------------------

The Gibbs free energy is G = H - T*S

Total enthalpy                    ...  -3976.04270057 Eh 
Total entropy correction          ...     -0.15589356 Eh    -97.82 kcal/mol
-----------------------------------------------------------------------
Final Gibbs free energy         ...  -3976.19859414 Eh

For completeness - the Gibbs free energy minus the electronic energy
G-E(el)                           ...      0.30132953 Eh    189.09 kcal/mol


Maximum memory used throughout the entire PROP-calculation: 150.5 MB

--------------------------------
SUGGESTED CITATIONS FOR THIS RUN
--------------------------------

Below you find a list of papers that are relevant to this ORCA run
We neither can nor want to force you to cite these papers, but we appreciate if you do
You receive ORCA, which is the product of decades of hard work by many enthusiastic individuals, for free
The only thing we kindly ask in return is that you cite our papers,
We deeply appreciate it, if you show your appreciation for ORCA by not just citing the generic ORCA reference.

Please note that relegating all ORCA citations to the supporting information does *not* help us.
SI sections are not indexed - citations you put there will not count into any citation statistics
But we need these citations in order to attract the funding resources that allow us to do what we are doing

Therefore, if you are a happy ORCA user, please consider citing a few of the papers listed below in the main body of your paper

In addition to the list printed below, the program has created the file run.bibtex that contains the list in bibtex format
You can import this file easily into all common literature databanks and citation aid programs


List of essential papers. We consider these as the minimum necessary citations

  1. Neese, F.
     Software update: the ORCA program system, version 6.0
     WIRES Comput. Molec. Sci. 2025 15(1), e70019
     doi.org/10.1002/wcms.7019

List of papers to cite with high priority. The work reported in these papers was absolutely
necessary for this run to complete.
Our perspective: the developers of density functionals and basis sets usually get cited in chemistry papers
Good! But without the algorithms to do something with them, the functionals or basis sets would not do anything.
Hence, in our opinion, the algorithm design and method developments papers are equally worthy of getting cited

  1. Neese, F.
     An improvement of the resolution of the identity approximation for the formation of the Coulomb matrix
     J. Comp. Chem. 2003 24(14), 1740-1747
     doi.org/10.1002/jcc.10318
  2. Grimme, S.; Antony, J.; Ehrlich, S.; Krieg, H.
     A consistent and accurate ab initio parametrization of density functional dispersion correction (DFT-D) for the 94 elements H-Pu
     J. Chem. Phys. 2010 132 , 154104
     doi.org/10.1063/1.3382344
  3. Grimme, S.; Ehrlich, S.; Goerigk, L.
     Effect of the damping function in dispersion corrected density functional theory
     J. Comput. Chem. 2011 32(7), 1456-1465
     doi.org/10.1002/jcc.21759
  4. Bykov, D.; Petrenko, T.; Izsak, R.; Kossmann, S.; Becker, U.; Valeev, E.; Neese, F.
     Efficient implementation of the analytic second derivatives of Hartree-Fock and hybrid DFT energies: a detailed analysis of different approximations
     Molec. Phys. 2015 113 , 1961-1977
     doi.org/10.1080/00268976.2015.1025114
  5. Helmich-Paris, B.
     A trust-region augmented Hessian implementation for restricted and unrestricted Hartree–Fock and Kohn–Sham methods
     J. Chem. Phys. 2021 154 , 164104
     doi.org/10.1063/5.0040798
  6. Neese, F.
     The SHARK Integral Generation and Digestion System
     J. Comp. Chem. 2022 44(3), 381
     doi.org/10.1002/jcc.26942

List of suggested additional citations. These are papers that are important in the 'surrounding' of 
of this run, or papers that preceded the highly important papers. If you like your results we are grateful for a citation.

  1. Neese, F.
     The ORCA program system
     WIRES Comput. Molec. Sci. 2012 2(1), 73-78
     doi.org/10.1002/wcms.81
  2. Neese, F.
     Software update: the ORCA program system, version 4.0
     WIRES Comput. Molec. Sci. 2018 8(1), 1-6
     doi.org/10.1002/wcms.1327
  3. Neese, F.; Wennmohs, F.; Becker, U.; Riplinger, C.
     The ORCA quantum chemistry program package
     J. Chem. Phys. 2020 152(22), 224108
     doi.org/10.1063/5.0004608
  4. Neese, F.
     Software update: The ORCA program system—Version 5.0
     WIRES Comput. Molec. Sci. 2022 12(1), e1606
     doi.org/10.1002/wcms.1606

List of optional additional citations

  1. Neese, F.
     Approximate second-order SCF convergence for spin unrestricted wavefunctions
     Chem. Phys. Lett. 2000 325(1-3), 93-98
     doi.org/10.1016/s0009-2614(00)00662-x

Timings for individual modules:

Sum of individual times          ...     9853.351 sec (= 164.223 min)
Startup calculation              ...      452.846 sec (=   7.547 min)   4.6 %
SCF iterations                   ...     2711.949 sec (=  45.199 min)  27.5 %
Property integrals               ...     2096.863 sec (=  34.948 min)  21.3 %
SCF Response                     ...     1478.659 sec (=  24.644 min)  15.0 %
Property calculations            ...     1990.762 sec (=  33.179 min)  20.2 %
SCF Gradient evaluation          ...     1102.866 sec (=  18.381 min)  11.2 %
Geometry relaxation              ...       19.406 sec (=   0.323 min)   0.2 %
                             ****ORCA TERMINATED NORMALLY****
TOTAL RUN TIME: 0 days 2 hours 44 minutes 42 seconds 805 msec
