
     Program PHONON v.7.3.1 starts on 14May2025 at 12: 0: 8 

     This program is part of the open-source Quantum ESPRESSO suite
     for quantum simulation of materials; please cite
         "P. Giannozzi et al., J. Phys.:Condens. Matter 21 395502 (2009);
         "P. Giannozzi et al., J. Phys.:Condens. Matter 29 465901 (2017);
         "P. Giannozzi et al., J. Chem. Phys. 152 154105 (2020);
          URL http://www.quantum-espresso.org", 
     in publications or presentations arising from this work. More details at
     http://www.quantum-espresso.org/quote

     Parallel version (MPI), running on   256 processors

     MPI processes distributed on     1 nodes
     1534878 MiB available memory on the printing compute node when the environment starts

     Waiting for input...
     Reading input from standard input

     Reading xml data from directory:

     ./pwscf.save/

     R & G space division:  proc/nbgrp/npool/nimage =     256
     WARNING: too many processors for an effective parallelization!
     wavefunctions fft division:  task group distribution
                                  #TG    x Z-proc =       8     32
     Subspace diagonalization in iterative solution of the eigenvalue problem:
     one sub-group per band group will be used
     custom distributed-memory algorithm (size of sub-group:  2*  2 procs)

     file H.pbe-kjpaw_psl.1.0.0.UPF: wavefunction(s)  1S renormalized
     file Zr.pbe-spn-kjpaw_psl.1.0.0.UPF: wavefunction(s)  4S 4P renormalized
     file C.pbe-n-kjpaw_psl.1.0.0.UPF: wavefunction(s)  2S 2P renormalized
     file O.pbe-n-kjpaw_psl.1.0.0.UPF: wavefunction(s)  2S 2P renormalized

     IMPORTANT: XC functional enforced from input :
     Exchange-correlation= PBE
                           (   1   4   3   4   0   0   0)
     Any further DFT definition will be discarded
     Please, verify this is what you really want


     Parallelization info
     --------------------
     sticks:   dense  smooth     PW     G-vecs:    dense   smooth      PW
     Min         101      67     16                10803     5874     727
     Max         102      68     17                10812     5885     739
     Sum       25993   17329   4315              2766567  1504973  188093

     Using Pencil Decomposition


     Check: negative core charge=   -0.000001

     negative rho (up, down):  5.983E-04 0.000E+00
     Reading collected, re-writing distributed wavefunctions in ./

     Number and degeneracy of irreps per q-point
       N         xq(1)         xq(2)         xq(3)   N irreps
       1   0.000000000   0.000000000   0.000000000     342
     No degeneracy

     Calculation of q =    0.0000000   0.0000000   0.0000000

     dielectric constant                                                        

     bravais-lattice index     =            0
     lattice parameter (alat)  =      28.0321  a.u.
     unit-cell volume          =   15575.9230 (a.u.)^3
     number of atoms/cell      =          114
     number of atomic types    =            4
     kinetic-energy cut-off    =      80.0000  Ry
     charge density cut-off    =     480.0000  Ry
     convergence threshold     =      1.0E-14
     beta                      =       0.7000
     number of iterations used =            4
     Exchange-correlation= PBE
                           (   1   4   3   4   0   0   0)


     celldm(1)=   28.03214  celldm(2)=    0.00000  celldm(3)=    0.00000
     celldm(4)=    0.00000  celldm(5)=    0.00000  celldm(6)=    0.00000

     crystal axes: (cart. coord. in units of alat)
               a(1) = (  1.0000  0.0000  0.0000 )  
               a(2) = (  0.5000  0.8660  0.0000 )  
               a(3) = (  0.5000  0.2887  0.8165 )  

     reciprocal axes: (cart. coord. in units 2 pi/alat)
               b(1) = (  1.0000 -0.5774 -0.4082 )  
               b(2) = (  0.0000  1.1547 -0.4082 )  
               b(3) = (  0.0000  0.0000  1.2247 )  


     Atoms inside the unit cell: 

     Cartesian axes

     site n.  atom      mass           positions (alat units)
        1  Zr     91.2240   tau(    1) = (    1.00000    0.13903    0.09831  )
        2  Zr     91.2240   tau(    2) = (    1.00000    1.01567    0.71819  )
        3  Zr     91.2240   tau(    3) = (    0.62040    0.35819    0.71819  )
        4  Zr     91.2240   tau(    4) = (    1.37960    0.35819    0.71819  )
        5  Zr     91.2240   tau(    5) = (    0.62040    0.79651    0.09831  )
        6  Zr     91.2240   tau(    6) = (    1.37960    0.79651    0.09831  )
        7  O      15.9990   tau(    7) = (    0.13454    0.07768    0.05493  )
        8  O      15.9990   tau(    8) = (    0.90805    0.14108    0.21874  )
        9  O      15.9990   tau(    9) = (    0.90285    0.90445    0.75216  )
       10  O      15.9990   tau(   10) = (    1.09715    1.01062    0.60200  )
       11  O      15.9990   tau(   11) = (    1.09195    0.25325    0.06009  )
       12  O      15.9990   tau(   12) = (    0.76530    0.32967    0.75216  )
       13  O      15.9990   tau(   13) = (    1.32665    0.27658    0.60200  )
       14  O      15.9990   tau(   14) = (    0.57620    0.44485    0.60200  )
       15  O      15.9990   tau(   15) = (    0.67335    0.65977    0.06009  )
       16  O      15.9990   tau(   16) = (    1.42380    0.71586    0.21874  )
       17  O      15.9990   tau(   17) = (    0.66815    0.87512    0.21874  )
       18  O      15.9990   tau(   18) = (    1.23470    0.81903    0.06009  )
       19  O      15.9990   tau(   19) = (    1.33185    0.49794    0.75216  )
       20  O      15.9990   tau(   20) = (    1.23470    0.32967    0.75216  )
       21  O      15.9990   tau(   21) = (    0.57620    0.71586    0.21874  )
       22  O      15.9990   tau(   22) = (    0.76530    0.81903    0.06009  )
       23  O      15.9990   tau(   23) = (    1.42380    0.44485    0.60200  )
       24  O      15.9990   tau(   24) = (    0.67335    0.27658    0.60200  )
       25  O      15.9990   tau(   25) = (    1.09195    0.14108    0.21874  )
       26  O      15.9990   tau(   26) = (    0.66815    0.49794    0.75216  )
       27  O      15.9990   tau(   27) = (    1.09715    0.90445    0.75216  )
       28  O      15.9990   tau(   28) = (    1.32665    0.65977    0.06009  )
       29  O      15.9990   tau(   29) = (    0.90285    1.01062    0.60200  )
       30  O      15.9990   tau(   30) = (    1.33185    0.87512    0.21874  )
       31  O      15.9990   tau(   31) = (    0.90805    0.25325    0.06009  )
       32  O      15.9990   tau(   32) = (    0.50000    0.28868    0.65172  )
       33  O      15.9990   tau(   33) = (    0.50000    0.71067    0.05493  )
       34  O      15.9990   tau(   34) = (    0.86546    0.07768    0.05493  )
       35  O      15.9990   tau(   35) = (    1.90114    1.09762    0.77614  )
       36  O      15.9990   tau(   36) = (    1.09886    1.09762    0.77614  )
       37  O      15.9990   tau(   37) = (    1.50000    0.40283    0.77614  )
       38  O      15.9990   tau(   38) = (    1.50000    0.86603    0.12108  )
       39  C      12.0106   tau(   39) = (    1.64825    0.55492    0.81315  )
       40  C      12.0106   tau(   40) = (    0.82085    0.19789    0.37526  )
       41  C      12.0106   tau(   41) = (    0.80785    0.74244    0.74440  )
       42  C      12.0106   tau(   42) = (    1.19215    0.94931    0.45185  )
       43  C      12.0106   tau(   43) = (    1.17915    0.41976    0.06148  )
       44  C      12.0106   tau(   44) = (    0.95310    0.32840    0.74440  )
       45  C      12.0106   tau(   45) = (    1.22605    0.22496    0.45185  )
       46  C      12.0106   tau(   46) = (    0.58180    0.55778    0.45185  )
       47  C      12.0106   tau(   47) = (    0.77395    0.50100    0.06148  )
       48  C      12.0106   tau(   48) = (    1.41820    0.61193    0.37526  )
       49  C      12.0106   tau(   49) = (    0.76095    0.92223    0.37526  )
       50  C      12.0106   tau(   50) = (    1.04690    0.81129    0.06148  )
       51  C      12.0106   tau(   51) = (    1.23905    0.66121    0.74440  )
       52  C      12.0106   tau(   52) = (    1.04690    0.32840    0.74440  )
       53  C      12.0106   tau(   53) = (    0.58180    0.61193    0.37526  )
       54  C      12.0106   tau(   54) = (    0.95310    0.81129    0.06148  )
       55  C      12.0106   tau(   55) = (    1.41820    0.55778    0.45185  )
       56  C      12.0106   tau(   56) = (    0.77395    0.22496    0.45185  )
       57  C      12.0106   tau(   57) = (    1.17915    0.19789    0.37526  )
       58  C      12.0106   tau(   58) = (    0.76095    0.66121    0.74440  )
       59  C      12.0106   tau(   59) = (    1.19215    0.74244    0.74440  )
       60  C      12.0106   tau(   60) = (    1.22605    0.50100    0.06148  )
       61  C      12.0106   tau(   61) = (    0.80785    0.94931    0.45185  )
       62  C      12.0106   tau(   62) = (    1.23905    0.92223    0.37526  )
       63  C      12.0106   tau(   63) = (    0.82085    0.41976    0.06148  )
       64  C      12.0106   tau(   64) = (    1.15645    1.06437    0.57106  )
       65  C      12.0106   tau(   65) = (    1.84355    0.89319    0.81315  )
       66  C      12.0106   tau(   66) = (    1.35175    0.95162    0.25213  )
       67  C      12.0106   tau(   67) = (    1.50000    0.46933    0.57106  )
       68  C      12.0106   tau(   68) = (    1.35175    0.55492    0.81315  )
       69  C      12.0106   tau(   69) = (    1.30470    1.14997    0.81315  )
       70  C      12.0106   tau(   70) = (    1.64825    0.95162    0.25213  )
       71  C      12.0106   tau(   71) = (    1.69530    1.14997    0.81315  )
       72  C      12.0106   tau(   72) = (    1.15645    0.89319    0.81315  )
       73  C      12.0106   tau(   73) = (    1.50000    0.69484    0.25213  )
       74  C      12.0106   tau(   74) = (    1.84355    1.06437    0.57106  )
       75  C      12.0106   tau(   75) = (    1.59430    1.14754    0.81143  )
       76  C      12.0106   tau(   76) = (    1.50000    0.63895    0.33631  )
       77  C      12.0106   tau(   77) = (    1.40570    1.14754    0.81143  )
       78  C      12.0106   tau(   78) = (    1.50000    0.53007    0.49031  )
       79  C      12.0106   tau(   79) = (    1.20905    1.03401    0.49031  )
       80  C      12.0106   tau(   80) = (    1.69665    0.97956    0.33631  )
       81  C      12.0106   tau(   81) = (    1.69665    0.64360    0.81143  )
       82  C      12.0106   tau(   82) = (    1.20905    0.80693    0.81143  )
       83  C      12.0106   tau(   83) = (    1.79095    0.80693    0.81143  )
       84  C      12.0106   tau(   84) = (    1.79095    1.03401    0.49031  )
       85  C      12.0106   tau(   85) = (    1.30335    0.97956    0.33631  )
       86  C      12.0106   tau(   86) = (    1.30335    0.64360    0.81143  )
       87  H       1.0075   tau(   87) = (    0.87090    0.24133    0.34456  )
       88  H       1.0075   tau(   88) = (    0.85800    0.75685    0.69329  )
       89  H       1.0075   tau(   89) = (    1.14200    0.90592    0.48247  )
       90  H       1.0075   tau(   90) = (    1.12910    0.40530    0.11268  )
       91  H       1.0075   tau(   91) = (    0.91555    0.36463    0.69329  )
       92  H       1.0075   tau(   92) = (    1.21355    0.29009    0.48247  )
       93  H       1.0075   tau(   93) = (    0.64445    0.53604    0.48247  )
       94  H       1.0075   tau(   94) = (    0.78645    0.55157    0.11268  )
       95  H       1.0075   tau(   95) = (    1.35555    0.63356    0.34456  )
       96  H       1.0075   tau(   96) = (    0.77355    0.85716    0.34456  )
       97  H       1.0075   tau(   97) = (    1.08445    0.77518    0.11268  )
       98  H       1.0075   tau(   98) = (    1.22645    0.61058    0.69329  )
       99  H       1.0075   tau(   99) = (    1.08445    0.36463    0.69329  )
      100  H       1.0075   tau(  100) = (    0.64445    0.63356    0.34456  )
      101  H       1.0075   tau(  101) = (    0.91555    0.77518    0.11268  )
      102  H       1.0075   tau(  102) = (    1.35555    0.53604    0.48247  )
      103  H       1.0075   tau(  103) = (    0.78645    0.29009    0.48247  )
      104  H       1.0075   tau(  104) = (    1.12910    0.24133    0.34456  )
      105  H       1.0075   tau(  105) = (    0.77355    0.61058    0.69329  )
      106  H       1.0075   tau(  106) = (    1.14200    0.75685    0.69329  )
      107  H       1.0075   tau(  107) = (    1.21355    0.55157    0.11268  )
      108  H       1.0075   tau(  108) = (    0.85800    0.90592    0.48247  )
      109  H       1.0075   tau(  109) = (    1.22645    0.85716    0.34456  )
      110  H       1.0075   tau(  110) = (    0.87090    0.40530    0.11268  )
      111  H       1.0075   tau(  111) = (    0.50000    0.28868    0.58681  )
      112  H       1.0075   tau(  112) = (    0.50000    0.64947    0.07656  )
      113  H       1.0075   tau(  113) = (    0.18754    0.10828    0.07656  )
      114  H       1.0075   tau(  114) = (    0.81246    0.10828    0.07656  )

     Computing dynamical matrix for 
                    q = (   0.0000000   0.0000000   0.0000000 )

      7 Sym.Ops. (with q -> -q+G )


     G cutoff = 9554.1934  (  10804 G-vectors)     FFT grid: (200,200,200)
     G cutoff = 6369.4623  (   5885 G-vectors)  smooth grid: (160,160,160)
     number of k points=     1
                       cart. coord. in units 2pi/alat
        k(    1) = (   0.0000000   0.0000000   0.0000000), wk =   2.0000000

     PseudoPot. # 1 for H  read from file:
     /home/mehlhorn/pseudos/UiO-66_pbe-spn-kjpaw/H.pbe-kjpaw_psl.1.0.0.UPF
     MD5 check sum: d81a744832360e4a8af0b0b5b123bc2a
     Pseudo is Projector augmented-wave, Zval =  1.0
     Generated using &quot;atomic&quot; code by A. Dal Corso  v.6.3MaX
     Shape of augmentation charge: PSQ
     Using radial grid of  929 points,  2 beta functions with: 
                l(1) =   0
                l(2) =   0
     Q(r) pseudized with 0 coefficients 


     PseudoPot. # 2 for Zr read from file:
     /home/mehlhorn/pseudos/UiO-66_pbe-spn-kjpaw/Zr.pbe-spn-kjpaw_psl.1.0.0.UPF
     MD5 check sum: 02112c41713a0468aff2bb39ef194e36
     Pseudo is Projector augmented-wave + core cor, Zval = 12.0
     Generated using &quot;atomic&quot; code by A. Dal Corso  v.6.2.2
     Shape of augmentation charge: PSQ
     Using radial grid of 1225 points,  6 beta functions with: 
                l(1) =   0
                l(2) =   0
                l(3) =   1
                l(4) =   1
                l(5) =   2
                l(6) =   2
     Q(r) pseudized with 0 coefficients 


     PseudoPot. # 3 for C  read from file:
     /home/mehlhorn/pseudos/UiO-66_pbe-spn-kjpaw/C.pbe-n-kjpaw_psl.1.0.0.UPF
     MD5 check sum: 5f16ad9a65e90284d1d834d4ab3b0f7d
     Pseudo is Projector augmented-wave + core cor, Zval =  4.0
     Generated using &quot;atomic&quot; code by A. Dal Corso  v.6.3
     Shape of augmentation charge: PSQ
     Using radial grid of 1073 points,  4 beta functions with: 
                l(1) =   0
                l(2) =   0
                l(3) =   1
                l(4) =   1
     Q(r) pseudized with 0 coefficients 


     PseudoPot. # 4 for O  read from file:
     /home/mehlhorn/pseudos/UiO-66_pbe-spn-kjpaw/O.pbe-n-kjpaw_psl.1.0.0.UPF
     MD5 check sum: e99d9cef9b487d1ca56f5b95ecd0fd7a
     Pseudo is Projector augmented-wave + core cor, Zval =  6.0
     Generated using &quot;atomic&quot; code by A. Dal Corso  v.6.3
     Shape of augmentation charge: PSQ
     Using radial grid of 1095 points,  4 beta functions with: 
                l(1) =   0
                l(2) =   0
                l(3) =   1
                l(4) =   1
     Q(r) pseudized with 0 coefficients 


     Mode symmetry, C_3v (3m)   point group:

     k=gamma and q=gamma tricks are used


     Electric field:
     Dielectric constant and polarizability
     Born effective charges as d Force / d E


     Atomic displacements:
     There are  342 irreducible representations

     Representation     1      1 modes -  To be done

     Representation     2      1 modes -  To be done

     Representation     3      1 modes -  To be done

     Representation     4      1 modes -  To be done

     Representation     5      1 modes -  To be done

     Representation     6      1 modes -  To be done

     Representation     7      1 modes - Calculated using symmetry

     Representation     8      1 modes - Calculated using symmetry

     Representation     9      1 modes - Calculated using symmetry

     Representation    10      1 modes - Calculated using symmetry

     Representation    11      1 modes - Calculated using symmetry

     Representation    12      1 modes - Calculated using symmetry

     Representation    13      1 modes - Calculated using symmetry

     Representation    14      1 modes - Calculated using symmetry

     Representation    15      1 modes - Calculated using symmetry

     Representation    16      1 modes - Calculated using symmetry

     Representation    17      1 modes - Calculated using symmetry

     Representation    18      1 modes - Calculated using symmetry

     Representation    19      1 modes -  To be done

     Representation    20      1 modes -  To be done

     Representation    21      1 modes -  To be done

     Representation    22      1 modes -  To be done

     Representation    23      1 modes -  To be done

     Representation    24      1 modes -  To be done

     Representation    25      1 modes -  To be done

     Representation    26      1 modes -  To be done

     Representation    27      1 modes -  To be done

     Representation    28      1 modes -  To be done

     Representation    29      1 modes -  To be done

     Representation    30      1 modes -  To be done

     Representation    31      1 modes -  To be done

     Representation    32      1 modes -  To be done

     Representation    33      1 modes -  To be done

     Representation    34      1 modes - Calculated using symmetry

     Representation    35      1 modes - Calculated using symmetry

     Representation    36      1 modes - Calculated using symmetry

     Representation    37      1 modes - Calculated using symmetry

     Representation    38      1 modes - Calculated using symmetry

     Representation    39      1 modes - Calculated using symmetry

     Representation    40      1 modes - Calculated using symmetry

     Representation    41      1 modes - Calculated using symmetry

     Representation    42      1 modes - Calculated using symmetry

     Representation    43      1 modes - Calculated using symmetry

     Representation    44      1 modes - Calculated using symmetry

     Representation    45      1 modes - Calculated using symmetry

     Representation    46      1 modes - Calculated using symmetry

     Representation    47      1 modes - Calculated using symmetry

     Representation    48      1 modes - Calculated using symmetry

     Representation    49      1 modes - Calculated using symmetry

     Representation    50      1 modes - Calculated using symmetry

     Representation    51      1 modes - Calculated using symmetry

     Representation    52      1 modes - Calculated using symmetry

     Representation    53      1 modes - Calculated using symmetry

     Representation    54      1 modes - Calculated using symmetry

     Representation    55      1 modes - Calculated using symmetry

     Representation    56      1 modes - Calculated using symmetry

     Representation    57      1 modes - Calculated using symmetry

     Representation    58      1 modes - Calculated using symmetry

     Representation    59      1 modes - Calculated using symmetry

     Representation    60      1 modes - Calculated using symmetry

     Representation    61      1 modes - Calculated using symmetry

     Representation    62      1 modes - Calculated using symmetry

     Representation    63      1 modes - Calculated using symmetry

     Representation    64      1 modes - Calculated using symmetry

     Representation    65      1 modes - Calculated using symmetry

     Representation    66      1 modes - Calculated using symmetry

     Representation    67      1 modes - Calculated using symmetry

     Representation    68      1 modes - Calculated using symmetry

     Representation    69      1 modes - Calculated using symmetry

     Representation    70      1 modes - Calculated using symmetry

     Representation    71      1 modes - Calculated using symmetry

     Representation    72      1 modes - Calculated using symmetry

     Representation    73      1 modes - Calculated using symmetry

     Representation    74      1 modes - Calculated using symmetry

     Representation    75      1 modes - Calculated using symmetry

     Representation    76      1 modes - Calculated using symmetry

     Representation    77      1 modes - Calculated using symmetry

     Representation    78      1 modes - Calculated using symmetry

     Representation    79      1 modes - Calculated using symmetry

     Representation    80      1 modes - Calculated using symmetry

     Representation    81      1 modes - Calculated using symmetry

     Representation    82      1 modes - Calculated using symmetry

     Representation    83      1 modes - Calculated using symmetry

     Representation    84      1 modes - Calculated using symmetry

     Representation    85      1 modes - Calculated using symmetry

     Representation    86      1 modes - Calculated using symmetry

     Representation    87      1 modes - Calculated using symmetry

     Representation    88      1 modes - Calculated using symmetry

     Representation    89      1 modes - Calculated using symmetry

     Representation    90      1 modes - Calculated using symmetry

     Representation    91      1 modes - Calculated using symmetry

     Representation    92      1 modes - Calculated using symmetry

     Representation    93      1 modes - Calculated using symmetry

     Representation    94      1 modes -  To be done

     Representation    95      1 modes -  To be done

     Representation    96      1 modes -  To be done

     Representation    97      1 modes - Calculated using symmetry

     Representation    98      1 modes - Calculated using symmetry

     Representation    99      1 modes - Calculated using symmetry

     Representation   100      1 modes - Calculated using symmetry

     Representation   101      1 modes - Calculated using symmetry

     Representation   102      1 modes - Calculated using symmetry

     Representation   103      1 modes -  To be done

     Representation   104      1 modes -  To be done

     Representation   105      1 modes -  To be done

     Representation   106      1 modes - Calculated using symmetry

     Representation   107      1 modes - Calculated using symmetry

     Representation   108      1 modes - Calculated using symmetry

     Representation   109      1 modes - Calculated using symmetry

     Representation   110      1 modes - Calculated using symmetry

     Representation   111      1 modes - Calculated using symmetry

     Representation   112      1 modes -  To be done

     Representation   113      1 modes -  To be done

     Representation   114      1 modes -  To be done

     Representation   115      1 modes -  To be done

     Representation   116      1 modes -  To be done

     Representation   117      1 modes -  To be done

     Representation   118      1 modes -  To be done

     Representation   119      1 modes -  To be done

     Representation   120      1 modes -  To be done

     Representation   121      1 modes -  To be done

     Representation   122      1 modes -  To be done

     Representation   123      1 modes -  To be done

     Representation   124      1 modes -  To be done

     Representation   125      1 modes -  To be done

     Representation   126      1 modes -  To be done

     Representation   127      1 modes -  To be done

     Representation   128      1 modes -  To be done

     Representation   129      1 modes -  To be done

     Representation   130      1 modes - Calculated using symmetry

     Representation   131      1 modes - Calculated using symmetry

     Representation   132      1 modes - Calculated using symmetry

     Representation   133      1 modes - Calculated using symmetry

     Representation   134      1 modes - Calculated using symmetry

     Representation   135      1 modes - Calculated using symmetry

     Representation   136      1 modes - Calculated using symmetry

     Representation   137      1 modes - Calculated using symmetry

     Representation   138      1 modes - Calculated using symmetry

     Representation   139      1 modes - Calculated using symmetry

     Representation   140      1 modes - Calculated using symmetry

     Representation   141      1 modes - Calculated using symmetry

     Representation   142      1 modes - Calculated using symmetry

     Representation   143      1 modes - Calculated using symmetry

     Representation   144      1 modes - Calculated using symmetry

     Representation   145      1 modes - Calculated using symmetry

     Representation   146      1 modes - Calculated using symmetry

     Representation   147      1 modes - Calculated using symmetry

     Representation   148      1 modes - Calculated using symmetry

     Representation   149      1 modes - Calculated using symmetry

     Representation   150      1 modes - Calculated using symmetry

     Representation   151      1 modes - Calculated using symmetry

     Representation   152      1 modes - Calculated using symmetry

     Representation   153      1 modes - Calculated using symmetry

     Representation   154      1 modes - Calculated using symmetry

     Representation   155      1 modes - Calculated using symmetry

     Representation   156      1 modes - Calculated using symmetry

     Representation   157      1 modes - Calculated using symmetry

     Representation   158      1 modes - Calculated using symmetry

     Representation   159      1 modes - Calculated using symmetry

     Representation   160      1 modes - Calculated using symmetry

     Representation   161      1 modes - Calculated using symmetry

     Representation   162      1 modes - Calculated using symmetry

     Representation   163      1 modes - Calculated using symmetry

     Representation   164      1 modes - Calculated using symmetry

     Representation   165      1 modes - Calculated using symmetry

     Representation   166      1 modes - Calculated using symmetry

     Representation   167      1 modes - Calculated using symmetry

     Representation   168      1 modes - Calculated using symmetry

     Representation   169      1 modes - Calculated using symmetry

     Representation   170      1 modes - Calculated using symmetry

     Representation   171      1 modes - Calculated using symmetry

     Representation   172      1 modes - Calculated using symmetry

     Representation   173      1 modes - Calculated using symmetry

     Representation   174      1 modes - Calculated using symmetry

     Representation   175      1 modes - Calculated using symmetry

     Representation   176      1 modes - Calculated using symmetry

     Representation   177      1 modes - Calculated using symmetry

     Representation   178      1 modes - Calculated using symmetry

     Representation   179      1 modes - Calculated using symmetry

     Representation   180      1 modes - Calculated using symmetry

     Representation   181      1 modes - Calculated using symmetry

     Representation   182      1 modes - Calculated using symmetry

     Representation   183      1 modes - Calculated using symmetry

     Representation   184      1 modes - Calculated using symmetry

     Representation   185      1 modes - Calculated using symmetry

     Representation   186      1 modes - Calculated using symmetry

     Representation   187      1 modes - Calculated using symmetry

     Representation   188      1 modes - Calculated using symmetry

     Representation   189      1 modes - Calculated using symmetry

     Representation   190      1 modes -  To be done

     Representation   191      1 modes -  To be done

     Representation   192      1 modes -  To be done

     Representation   193      1 modes - Calculated using symmetry

     Representation   194      1 modes - Calculated using symmetry

     Representation   195      1 modes - Calculated using symmetry

     Representation   196      1 modes -  To be done

     Representation   197      1 modes -  To be done

     Representation   198      1 modes -  To be done

     Representation   199      1 modes - Calculated using symmetry

     Representation   200      1 modes - Calculated using symmetry

     Representation   201      1 modes - Calculated using symmetry

     Representation   202      1 modes - Calculated using symmetry

     Representation   203      1 modes - Calculated using symmetry

     Representation   204      1 modes - Calculated using symmetry

     Representation   205      1 modes - Calculated using symmetry

     Representation   206      1 modes - Calculated using symmetry

     Representation   207      1 modes - Calculated using symmetry

     Representation   208      1 modes - Calculated using symmetry

     Representation   209      1 modes - Calculated using symmetry

     Representation   210      1 modes - Calculated using symmetry

     Representation   211      1 modes - Calculated using symmetry

     Representation   212      1 modes - Calculated using symmetry

     Representation   213      1 modes - Calculated using symmetry

     Representation   214      1 modes - Calculated using symmetry

     Representation   215      1 modes - Calculated using symmetry

     Representation   216      1 modes - Calculated using symmetry

     Representation   217      1 modes - Calculated using symmetry

     Representation   218      1 modes - Calculated using symmetry

     Representation   219      1 modes - Calculated using symmetry

     Representation   220      1 modes - Calculated using symmetry

     Representation   221      1 modes - Calculated using symmetry

     Representation   222      1 modes - Calculated using symmetry

     Representation   223      1 modes -  To be done

     Representation   224      1 modes -  To be done

     Representation   225      1 modes -  To be done

     Representation   226      1 modes -  To be done

     Representation   227      1 modes -  To be done

     Representation   228      1 modes -  To be done

     Representation   229      1 modes - Calculated using symmetry

     Representation   230      1 modes - Calculated using symmetry

     Representation   231      1 modes - Calculated using symmetry

     Representation   232      1 modes -  To be done

     Representation   233      1 modes -  To be done

     Representation   234      1 modes -  To be done

     Representation   235      1 modes - Calculated using symmetry

     Representation   236      1 modes - Calculated using symmetry

     Representation   237      1 modes - Calculated using symmetry

     Representation   238      1 modes - Calculated using symmetry

     Representation   239      1 modes - Calculated using symmetry

     Representation   240      1 modes - Calculated using symmetry

     Representation   241      1 modes - Calculated using symmetry

     Representation   242      1 modes - Calculated using symmetry

     Representation   243      1 modes - Calculated using symmetry

     Representation   244      1 modes - Calculated using symmetry

     Representation   245      1 modes - Calculated using symmetry

     Representation   246      1 modes - Calculated using symmetry

     Representation   247      1 modes - Calculated using symmetry

     Representation   248      1 modes - Calculated using symmetry

     Representation   249      1 modes - Calculated using symmetry

     Representation   250      1 modes - Calculated using symmetry

     Representation   251      1 modes - Calculated using symmetry

     Representation   252      1 modes - Calculated using symmetry

     Representation   253      1 modes - Calculated using symmetry

     Representation   254      1 modes - Calculated using symmetry

     Representation   255      1 modes - Calculated using symmetry

     Representation   256      1 modes - Calculated using symmetry

     Representation   257      1 modes - Calculated using symmetry

     Representation   258      1 modes - Calculated using symmetry

     Representation   259      1 modes -  To be done

     Representation   260      1 modes -  To be done

     Representation   261      1 modes -  To be done

     Representation   262      1 modes -  To be done

     Representation   263      1 modes -  To be done

     Representation   264      1 modes -  To be done

     Representation   265      1 modes -  To be done

     Representation   266      1 modes -  To be done

     Representation   267      1 modes -  To be done

     Representation   268      1 modes -  To be done

     Representation   269      1 modes -  To be done

     Representation   270      1 modes -  To be done

     Representation   271      1 modes - Calculated using symmetry

     Representation   272      1 modes - Calculated using symmetry

     Representation   273      1 modes - Calculated using symmetry

     Representation   274      1 modes - Calculated using symmetry

     Representation   275      1 modes - Calculated using symmetry

     Representation   276      1 modes - Calculated using symmetry

     Representation   277      1 modes - Calculated using symmetry

     Representation   278      1 modes - Calculated using symmetry

     Representation   279      1 modes - Calculated using symmetry

     Representation   280      1 modes - Calculated using symmetry

     Representation   281      1 modes - Calculated using symmetry

     Representation   282      1 modes - Calculated using symmetry

     Representation   283      1 modes - Calculated using symmetry

     Representation   284      1 modes - Calculated using symmetry

     Representation   285      1 modes - Calculated using symmetry

     Representation   286      1 modes - Calculated using symmetry

     Representation   287      1 modes - Calculated using symmetry

     Representation   288      1 modes - Calculated using symmetry

     Representation   289      1 modes - Calculated using symmetry

     Representation   290      1 modes - Calculated using symmetry

     Representation   291      1 modes - Calculated using symmetry

     Representation   292      1 modes - Calculated using symmetry

     Representation   293      1 modes - Calculated using symmetry

     Representation   294      1 modes - Calculated using symmetry

     Representation   295      1 modes - Calculated using symmetry

     Representation   296      1 modes - Calculated using symmetry

     Representation   297      1 modes - Calculated using symmetry

     Representation   298      1 modes - Calculated using symmetry

     Representation   299      1 modes - Calculated using symmetry

     Representation   300      1 modes - Calculated using symmetry

     Representation   301      1 modes - Calculated using symmetry

     Representation   302      1 modes - Calculated using symmetry

     Representation   303      1 modes - Calculated using symmetry

     Representation   304      1 modes - Calculated using symmetry

     Representation   305      1 modes - Calculated using symmetry

     Representation   306      1 modes - Calculated using symmetry

     Representation   307      1 modes - Calculated using symmetry

     Representation   308      1 modes - Calculated using symmetry

     Representation   309      1 modes - Calculated using symmetry

     Representation   310      1 modes - Calculated using symmetry

     Representation   311      1 modes - Calculated using symmetry

     Representation   312      1 modes - Calculated using symmetry

     Representation   313      1 modes - Calculated using symmetry

     Representation   314      1 modes - Calculated using symmetry

     Representation   315      1 modes - Calculated using symmetry

     Representation   316      1 modes - Calculated using symmetry

     Representation   317      1 modes - Calculated using symmetry

     Representation   318      1 modes - Calculated using symmetry

     Representation   319      1 modes - Calculated using symmetry

     Representation   320      1 modes - Calculated using symmetry

     Representation   321      1 modes - Calculated using symmetry

     Representation   322      1 modes - Calculated using symmetry

     Representation   323      1 modes - Calculated using symmetry

     Representation   324      1 modes - Calculated using symmetry

     Representation   325      1 modes - Calculated using symmetry

     Representation   326      1 modes - Calculated using symmetry

     Representation   327      1 modes - Calculated using symmetry

     Representation   328      1 modes - Calculated using symmetry

     Representation   329      1 modes - Calculated using symmetry

     Representation   330      1 modes - Calculated using symmetry

     Representation   331      1 modes -  To be done

     Representation   332      1 modes -  To be done

     Representation   333      1 modes -  To be done

     Representation   334      1 modes -  To be done

     Representation   335      1 modes -  To be done

     Representation   336      1 modes -  To be done

     Representation   337      1 modes - Calculated using symmetry

     Representation   338      1 modes - Calculated using symmetry

     Representation   339      1 modes - Calculated using symmetry

     Representation   340      1 modes - Calculated using symmetry

     Representation   341      1 modes - Calculated using symmetry

     Representation   342      1 modes - Calculated using symmetry


     PHONON       :  11m23.39s CPU  11m41.92s WALL


     Electric Fields Calculation

      iter #   1 total cpu time :  1733.0 secs   av.it.:  15.0
      thresh= 1.000E-02 alpha_mix =  0.700 |ddv_scf|^2 =  1.113E-08

      iter #   2 total cpu time :  2216.8 secs   av.it.:  36.3
      thresh= 1.055E-05 alpha_mix =  0.700 |ddv_scf|^2 =  3.084E-08

      iter #   3 total cpu time :  2672.0 secs   av.it.:  34.0
      thresh= 1.756E-05 alpha_mix =  0.700 |ddv_scf|^2 =  8.777E-10

      iter #   4 total cpu time :  3140.6 secs   av.it.:  35.0
      thresh= 2.963E-06 alpha_mix =  0.700 |ddv_scf|^2 =  2.079E-10

      iter #   5 total cpu time :  3597.3 secs   av.it.:  34.0
      thresh= 1.442E-06 alpha_mix =  0.700 |ddv_scf|^2 =  1.463E-11

      iter #   6 total cpu time :  4072.4 secs   av.it.:  36.0
      thresh= 3.825E-07 alpha_mix =  0.700 |ddv_scf|^2 =  2.342E-12

      iter #   7 total cpu time :  4565.1 secs   av.it.:  37.0
      thresh= 1.530E-07 alpha_mix =  0.700 |ddv_scf|^2 =  8.834E-13

      iter #   8 total cpu time :  5051.6 secs   av.it.:  37.0
      thresh= 9.399E-08 alpha_mix =  0.700 |ddv_scf|^2 =  1.690E-13

      iter #   9 total cpu time :  5532.4 secs   av.it.:  36.0
      thresh= 4.110E-08 alpha_mix =  0.700 |ddv_scf|^2 =  1.138E-14

      iter #  10 total cpu time :  6017.9 secs   av.it.:  37.0
      thresh= 1.067E-08 alpha_mix =  0.700 |ddv_scf|^2 =  5.676E-15

     End of electric fields calculation

          Dielectric constant in cartesian axis 

          (       2.139651938       0.000000000      -0.000000000 )
          (      -0.000000000       2.139651938      -0.000000000 )
          (       0.000000000       0.000000000       2.139648980 )

     Polarizability (a.u.)^3                    Polarizability (A^3)
   1023.70     -0.00      0.00           151.6970       -0.0000        0.0000
      0.00   1023.70      0.00             0.0000      151.6970        0.0000
     -0.00     -0.00   1023.70            -0.0000       -0.0000      151.6967

          Effective charges (d Force / dE) in cartesian axis without acoustic sum rule applied (asr)

           atom    1  Zr    Mean Z*:        4.88231
      Ex  (        4.79806        0.00000        0.00000 )
      Ey  (        0.00000        4.72779       -0.55626 )
      Ez  (        0.00000       -0.55627        5.12109 )
           atom    2  Zr    Mean Z*:        4.88231
      Ex  (        5.51441        0.00000        0.00000 )
      Ey  (       -0.00000        4.48900       -0.21856 )
      Ez  (        0.00000       -0.21856        4.64353 )
           atom    3  Zr    Mean Z*:        4.88231
      Ex  (        4.74535       -0.44402        0.18928 )
      Ey  (       -0.44402        5.25806        0.10928 )
      Ez  (        0.18928        0.10928        4.64353 )
           atom    4  Zr    Mean Z*:        4.88231
      Ex  (        4.74535        0.44402       -0.18928 )
      Ey  (        0.44402        5.25806        0.10928 )
      Ez  (       -0.18928        0.10928        4.64353 )
           atom    5  Zr    Mean Z*:        4.88231
      Ex  (        4.74536        0.03043       -0.48174 )
      Ey  (        0.03043        4.78049        0.27813 )
      Ez  (       -0.48175        0.27814        5.12109 )
           atom    6  Zr    Mean Z*:        4.88231
      Ex  (        4.74536       -0.03043        0.48174 )
      Ey  (       -0.03043        4.78049        0.27813 )
      Ez  (        0.48175        0.27814        5.12109 )
           atom    7  O     Mean Z*:       -1.30956
      Ex  (       -1.25744        0.06018        0.04256 )
      Ey  (        0.06018       -1.32694        0.02457 )
      Ez  (        0.04255        0.02457       -1.34430 )
           atom    8  O     Mean Z*:       -1.59204
      Ex  (       -1.74344       -0.46514        1.26963 )
      Ey  (       -0.30622       -0.93821        0.09126 )
      Ez  (        1.35166        0.29900       -2.09447 )
           atom    9  O     Mean Z*:       -1.59203
      Ex  (       -1.89302       -1.04637        0.82829 )
      Ey  (       -1.23031       -1.75743        0.52046 )
      Ez  (        0.72858        0.34333       -1.12565 )
           atom   10  O     Mean Z*:       -1.59204
      Ex  (       -1.89303       -0.43213        1.26262 )
      Ey  (       -0.27681       -0.92439        0.04881 )
      Ez  (        1.40281        0.22593       -1.95871 )
           atom   11  O     Mean Z*:       -1.59205
      Ex  (       -1.74346       -1.04198        0.86176 )
      Ey  (       -1.17231       -1.84336        0.61905 )
      Ez  (        0.73926        0.41128       -1.18934 )
           atom   12  O     Mean Z*:       -1.59203
      Ex  (       -2.77716        0.71985       -0.86488 )
      Ey  (        0.53591       -0.87329        0.45709 )
      Ez  (       -0.66162        0.45931       -1.12565 )
           atom   13  O     Mean Z*:       -1.59204
      Ex  (       -0.85957       -0.31986       -0.58904 )
      Ey  (       -0.16454       -1.95785       -1.11787 )
      Ez  (       -0.50574       -1.32783       -1.95871 )
           atom   14  O     Mean Z*:       -1.59204
      Ex  (       -1.47353        0.51901       -0.67358 )
      Ey  (        0.67433       -1.34389        1.06906 )
      Ez  (       -0.89706        1.10190       -1.95871 )
           atom   15  O     Mean Z*:       -1.59205
      Ex  (       -0.85957        0.66199        0.10523 )
      Ey  (        0.53167       -2.72725       -1.05583 )
      Ez  (       -0.01345       -0.84586       -1.18934 )
           atom   16  O     Mean Z*:       -1.59204
      Ex  (       -1.47352        0.46205       -0.71385 )
      Ey  (        0.62097       -1.20813        1.05390 )
      Ez  (       -0.93477        1.02107       -2.09447 )
           atom   17  O     Mean Z*:       -1.59204
      Ex  (       -0.80551       -0.23530       -0.55578 )
      Ey  (       -0.07638       -1.87614       -1.14516 )
      Ez  (       -0.41689       -1.32007       -2.09447 )
           atom   18  O     Mean Z*:       -1.59205
      Ex  (       -2.77720        0.57548       -0.96699 )
      Ey  (        0.44515       -0.80962        0.43678 )
      Ez  (       -0.72581        0.43458       -1.18934 )
           atom   19  O     Mean Z*:       -1.59203
      Ex  (       -0.80550        0.60243        0.03659 )
      Ey  (        0.41849       -2.84495       -0.97755 )
      Ez  (       -0.06696       -0.80264       -1.12565 )
           atom   20  O     Mean Z*:       -1.59203
      Ex  (       -2.77716       -0.71985        0.86488 )
      Ey  (       -0.53591       -0.87329        0.45709 )
      Ez  (        0.66162        0.45931       -1.12565 )
           atom   21  O     Mean Z*:       -1.59204
      Ex  (       -1.47352       -0.46205        0.71385 )
      Ey  (       -0.62097       -1.20813        1.05390 )
      Ez  (        0.93477        1.02107       -2.09447 )
           atom   22  O     Mean Z*:       -1.59205
      Ex  (       -2.77720       -0.57548        0.96699 )
      Ey  (       -0.44515       -0.80962        0.43678 )
      Ez  (        0.72581        0.43458       -1.18934 )
           atom   23  O     Mean Z*:       -1.59204
      Ex  (       -1.47353       -0.51901        0.67358 )
      Ey  (       -0.67433       -1.34389        1.06906 )
      Ez  (        0.89706        1.10190       -1.95871 )
           atom   24  O     Mean Z*:       -1.59204
      Ex  (       -0.85957        0.31986        0.58904 )
      Ey  (        0.16454       -1.95785       -1.11787 )
      Ez  (        0.50574       -1.32783       -1.95871 )
           atom   25  O     Mean Z*:       -1.59204
      Ex  (       -1.74344        0.46514       -1.26963 )
      Ey  (        0.30622       -0.93821        0.09126 )
      Ez  (       -1.35166        0.29900       -2.09447 )
           atom   26  O     Mean Z*:       -1.59203
      Ex  (       -0.80550       -0.60243       -0.03659 )
      Ey  (       -0.41849       -2.84495       -0.97755 )
      Ez  (        0.06696       -0.80264       -1.12565 )
           atom   27  O     Mean Z*:       -1.59203
      Ex  (       -1.89302        1.04637       -0.82829 )
      Ey  (        1.23031       -1.75743        0.52046 )
      Ez  (       -0.72858        0.34333       -1.12565 )
           atom   28  O     Mean Z*:       -1.59205
      Ex  (       -0.85957       -0.66199       -0.10523 )
      Ey  (       -0.53167       -2.72725       -1.05583 )
      Ez  (        0.01345       -0.84586       -1.18934 )
           atom   29  O     Mean Z*:       -1.59204
      Ex  (       -1.89303        0.43213       -1.26262 )
      Ey  (        0.27681       -0.92439        0.04881 )
      Ez  (       -1.40281        0.22593       -1.95871 )
           atom   30  O     Mean Z*:       -1.59204
      Ex  (       -0.80551        0.23530        0.55578 )
      Ey  (        0.07638       -1.87614       -1.14516 )
      Ez  (        0.41689       -1.32007       -2.09447 )
           atom   31  O     Mean Z*:       -1.59205
      Ex  (       -1.74346        1.04198       -0.86176 )
      Ey  (        1.17231       -1.84336        0.61905 )
      Ez  (       -0.73926        0.41128       -1.18934 )
           atom   32  O     Mean Z*:       -1.30956
      Ex  (       -1.36169        0.00000        0.00000 )
      Ey  (        0.00000       -1.36169        0.00000 )
      Ez  (        0.00000        0.00000       -1.20532 )
           atom   33  O     Mean Z*:       -1.30956
      Ex  (       -1.36168        0.00000        0.00000 )
      Ey  (        0.00000       -1.22270       -0.04914 )
      Ez  (        0.00000       -0.04914       -1.34430 )
           atom   34  O     Mean Z*:       -1.30956
      Ex  (       -1.25744       -0.06018       -0.04256 )
      Ey  (       -0.06018       -1.32694        0.02457 )
      Ez  (       -0.04255        0.02457       -1.34430 )
           atom   35  O     Mean Z*:       -2.02783
      Ex  (       -1.61604        0.47549        0.33623 )
      Ey  (        0.47549       -2.16509        0.19412 )
      Ez  (        0.33623        0.19412       -2.30237 )
           atom   36  O     Mean Z*:       -2.02783
      Ex  (       -1.61604       -0.47549       -0.33623 )
      Ey  (       -0.47549       -2.16509        0.19412 )
      Ez  (       -0.33623        0.19412       -2.30237 )
           atom   37  O     Mean Z*:       -2.02783
      Ex  (       -2.43962        0.00000        0.00000 )
      Ey  (        0.00000       -1.34151       -0.38824 )
      Ez  (        0.00000       -0.38825       -2.30237 )
           atom   38  O     Mean Z*:       -2.02785
      Ex  (       -2.43965        0.00000       -0.00000 )
      Ey  (        0.00000       -2.43965        0.00000 )
      Ez  (        0.00000        0.00000       -1.20426 )
           atom   39  C     Mean Z*:        2.02025
      Ex  (        1.50173        1.21288       -0.82836 )
      Ey  (        1.17422        3.05389        0.40097 )
      Ez  (       -0.81468        0.42464        1.50513 )
           atom   40  C     Mean Z*:       -0.06058
      Ex  (       -0.04153       -0.01371       -0.08763 )
      Ey  (        0.12594       -0.04768       -0.10924 )
      Ez  (        0.01065        0.07085       -0.09253 )
           atom   41  C     Mean Z*:       -0.06059
      Ex  (       -0.05950        0.08799       -0.01618 )
      Ey  (       -0.05927       -0.08993        0.07477 )
      Ez  (       -0.11984       -0.09600       -0.03236 )
           atom   42  C     Mean Z*:       -0.06059
      Ex  (       -0.05950       -0.01407       -0.08835 )
      Ey  (        0.13275       -0.04542       -0.11172 )
      Ez  (        0.01593        0.05904       -0.07685 )
           atom   43  C     Mean Z*:       -0.06060
      Ex  (       -0.04155        0.08718       -0.01629 )
      Ey  (       -0.05203       -0.09963        0.08921 )
      Ez  (       -0.11518       -0.09088       -0.04062 )
           atom   44  C     Mean Z*:       -0.06059
      Ex  (       -0.06988        0.05327       -0.05666 )
      Ey  (       -0.09399       -0.07954       -0.05140 )
      Ez  (        0.14306       -0.05579       -0.03236 )
           atom   45  C     Mean Z*:       -0.06059
      Ex  (       -0.10033       -0.10917       -0.05258 )
      Ey  (        0.03765       -0.00459        0.13238 )
      Ez  (        0.04316       -0.04331       -0.07685 )
           atom   46  C     Mean Z*:       -0.06059
      Ex  (        0.00245       -0.09698        0.14093 )
      Ey  (        0.04984       -0.10736       -0.02065 )
      Ez  (       -0.05909       -0.01572       -0.07685 )
           atom   47  C     Mean Z*:       -0.06060
      Ex  (       -0.10033        0.08597        0.08540 )
      Ey  (       -0.05324       -0.04085       -0.03050 )
      Ez  (       -0.02111        0.14519       -0.04062 )
           atom   48  C     Mean Z*:       -0.06058
      Ex  (        0.00245       -0.10054        0.13841 )
      Ey  (        0.03910       -0.09167       -0.02127 )
      Ez  (       -0.06669       -0.02620       -0.09253 )
           atom   49  C     Mean Z*:       -0.06058
      Ex  (       -0.09474       -0.09522       -0.05079 )
      Ey  (        0.04443        0.00553        0.13050 )
      Ez  (        0.05604       -0.04465       -0.09253 )
           atom   50  C     Mean Z*:       -0.06060
      Ex  (       -0.06989        0.03566       -0.06911 )
      Ey  (       -0.10355       -0.07129       -0.05871 )
      Ez  (        0.13630       -0.05431       -0.04062 )
           atom   51  C     Mean Z*:       -0.06059
      Ex  (       -0.09476        0.07963        0.07284 )
      Ey  (       -0.06764       -0.05467       -0.02337 )
      Ez  (       -0.02321        0.15179       -0.03236 )
           atom   52  C     Mean Z*:       -0.06059
      Ex  (       -0.06988       -0.05327        0.05666 )
      Ey  (        0.09399       -0.07954       -0.05140 )
      Ez  (       -0.14306       -0.05579       -0.03236 )
           atom   53  C     Mean Z*:       -0.06058
      Ex  (        0.00245        0.10054       -0.13841 )
      Ey  (       -0.03910       -0.09167       -0.02127 )
      Ez  (        0.06669       -0.02620       -0.09253 )
           atom   54  C     Mean Z*:       -0.06060
      Ex  (       -0.06989       -0.03566        0.06911 )
      Ey  (        0.10355       -0.07129       -0.05871 )
      Ez  (       -0.13630       -0.05431       -0.04062 )
           atom   55  C     Mean Z*:       -0.06059
      Ex  (        0.00245        0.09698       -0.14093 )
      Ey  (       -0.04984       -0.10736       -0.02065 )
      Ez  (        0.05909       -0.01572       -0.07685 )
           atom   56  C     Mean Z*:       -0.06059
      Ex  (       -0.10033        0.10917        0.05258 )
      Ey  (       -0.03765       -0.00459        0.13238 )
      Ez  (       -0.04316       -0.04331       -0.07685 )
           atom   57  C     Mean Z*:       -0.06058
      Ex  (       -0.04153        0.01371        0.08763 )
      Ey  (       -0.12594       -0.04768       -0.10924 )
      Ez  (       -0.01065        0.07085       -0.09253 )
           atom   58  C     Mean Z*:       -0.06059
      Ex  (       -0.09476       -0.07963       -0.07284 )
      Ey  (        0.06764       -0.05467       -0.02337 )
      Ez  (        0.02321        0.15179       -0.03236 )
           atom   59  C     Mean Z*:       -0.06059
      Ex  (       -0.05950       -0.08799        0.01618 )
      Ey  (        0.05927       -0.08993        0.07477 )
      Ez  (        0.11984       -0.09600       -0.03236 )
           atom   60  C     Mean Z*:       -0.06060
      Ex  (       -0.10033       -0.08597       -0.08540 )
      Ey  (        0.05324       -0.04085       -0.03050 )
      Ez  (        0.02111        0.14519       -0.04062 )
           atom   61  C     Mean Z*:       -0.06059
      Ex  (       -0.05950        0.01407        0.08835 )
      Ey  (       -0.13275       -0.04542       -0.11172 )
      Ez  (       -0.01593        0.05904       -0.07685 )
           atom   62  C     Mean Z*:       -0.06058
      Ex  (       -0.09474        0.09522        0.05079 )
      Ey  (       -0.04443        0.00553        0.13050 )
      Ez  (       -0.05604       -0.04465       -0.09253 )
           atom   63  C     Mean Z*:       -0.06060
      Ex  (       -0.04155       -0.08718        0.01629 )
      Ey  (        0.05203       -0.09963        0.08921 )
      Ez  (        0.11518       -0.09088       -0.04062 )
           atom   64  C     Mean Z*:        2.02025
      Ex  (        1.63219        0.30136       -1.43189 )
      Ey  (        0.30136        1.98017        0.82670 )
      Ez  (       -1.47290        0.85038        2.44837 )
           atom   65  C     Mean Z*:        2.02025
      Ex  (        1.63221        1.24955       -0.76143 )
      Ey  (        1.28821        2.92342        0.51690 )
      Ez  (       -0.77509        0.49322        1.50513 )
           atom   66  C     Mean Z*:        2.02025
      Ex  (        1.50173        0.37668       -1.41963 )
      Ey  (        0.37668        1.93668        0.81962 )
      Ez  (       -1.37862        0.79595        2.62234 )
           atom   67  C     Mean Z*:        2.02025
      Ex  (        2.15416       -0.00000        0.00000 )
      Ey  (       -0.00000        1.45821       -1.65341 )
      Ez  (        0.00000       -1.70076        2.44837 )
           atom   68  C     Mean Z*:        2.02025
      Ex  (        1.50173       -1.21288        0.82836 )
      Ey  (       -1.17422        3.05389        0.40097 )
      Ez  (        0.81468        0.42464        1.50513 )
           atom   69  C     Mean Z*:        2.02025
      Ex  (        3.69950       -0.09466       -0.06693 )
      Ey  (       -0.05600        0.85613       -0.91787 )
      Ez  (       -0.03960       -0.91786        1.50513 )
           atom   70  C     Mean Z*:        2.02025
      Ex  (        1.50173       -0.37668        1.41963 )
      Ey  (       -0.37668        1.93668        0.81962 )
      Ez  (        1.37862        0.79595        2.62234 )
           atom   71  C     Mean Z*:        2.02025
      Ex  (        3.69950        0.09466        0.06693 )
      Ey  (        0.05600        0.85613       -0.91787 )
      Ez  (        0.03960       -0.91786        1.50513 )
           atom   72  C     Mean Z*:        2.02025
      Ex  (        1.63221       -1.24955        0.76143 )
      Ey  (       -1.28821        2.92342        0.51690 )
      Ez  (        0.77509        0.49322        1.50513 )
           atom   73  C     Mean Z*:        2.02025
      Ex  (        2.15415        0.00000        0.00000 )
      Ey  (        0.00000        1.28425       -1.63925 )
      Ez  (        0.00000       -1.59190        2.62234 )
           atom   74  C     Mean Z*:        2.02025
      Ex  (        1.63219       -0.30136        1.43189 )
      Ey  (       -0.30136        1.98017        0.82670 )
      Ez  (        1.47290        0.85038        2.44837 )
           atom   75  C     Mean Z*:       -0.36485
      Ex  (       -1.07520       -0.01882       -0.01331 )
      Ey  (       -0.00619       -0.00590        0.01067 )
      Ez  (       -0.00438        0.01067       -0.01345 )
           atom   76  C     Mean Z*:       -0.36482
      Ex  (       -0.02098        0.00000        0.00000 )
      Ey  (       -0.00000       -0.34283        0.51024 )
      Ez  (        0.00000        0.49477       -0.73064 )
           atom   77  C     Mean Z*:       -0.36485
      Ex  (       -1.07520        0.01882        0.01331 )
      Ey  (        0.00619       -0.00590        0.01067 )
      Ez  (        0.00438        0.01067       -0.01345 )
           atom   78  C     Mean Z*:       -0.36484
      Ex  (       -0.02099        0.00000        0.00000 )
      Ey  (        0.00000       -0.37173        0.50499 )
      Ez  (        0.00000        0.52046       -0.70179 )
           atom   79  C     Mean Z*:       -0.36484
      Ex  (       -0.28405        0.15188        0.43733 )
      Ey  (        0.15188       -0.10867       -0.25249 )
      Ez  (        0.45073       -0.26023       -0.70179 )
           atom   80  C     Mean Z*:       -0.36482
      Ex  (       -0.26237       -0.13937       -0.44188 )
      Ey  (       -0.13937       -0.10144       -0.25512 )
      Ez  (       -0.42848       -0.24738       -0.73064 )
           atom   81  C     Mean Z*:       -0.36485
      Ex  (       -0.26239       -0.46308        0.01589 )
      Ey  (       -0.45045       -0.81870        0.00619 )
      Ez  (        0.01143       -0.00155       -0.01345 )
           atom   82  C     Mean Z*:       -0.36485
      Ex  (       -0.28405        0.46296       -0.00258 )
      Ey  (        0.47559       -0.79704       -0.01686 )
      Ez  (       -0.00706       -0.00913       -0.01345 )
           atom   83  C     Mean Z*:       -0.36485
      Ex  (       -0.28405       -0.46296        0.00258 )
      Ey  (       -0.47559       -0.79704       -0.01686 )
      Ez  (        0.00706       -0.00913       -0.01345 )
           atom   84  C     Mean Z*:       -0.36484
      Ex  (       -0.28405       -0.15188       -0.43733 )
      Ey  (       -0.15188       -0.10867       -0.25249 )
      Ez  (       -0.45073       -0.26023       -0.70179 )
           atom   85  C     Mean Z*:       -0.36482
      Ex  (       -0.26237        0.13937        0.44188 )
      Ey  (        0.13937       -0.10144       -0.25512 )
      Ez  (        0.42848       -0.24738       -0.73064 )
           atom   86  C     Mean Z*:       -0.36485
      Ex  (       -0.26239        0.46308       -0.01589 )
      Ey  (        0.45045       -0.81870        0.00619 )
      Ez  (       -0.01143       -0.00155       -0.01345 )
           atom   87  H     Mean Z*:        0.09723
      Ex  (        0.07729       -0.09478        0.03233 )
      Ey  (       -0.07760        0.06965        0.03250 )
      Ez  (        0.04271        0.05490        0.14475 )
           atom   88  H     Mean Z*:        0.09723
      Ex  (        0.07852        0.00394        0.10037 )
      Ey  (       -0.01518        0.16228        0.02140 )
      Ez  (        0.08861        0.00137        0.05089 )
           atom   89  H     Mean Z*:        0.09723
      Ex  (        0.07852       -0.09594        0.02974 )
      Ey  (       -0.07849        0.07042        0.03385 )
      Ez  (        0.04385        0.05387        0.14274 )
           atom   90  H     Mean Z*:        0.09723
      Ex  (        0.07728        0.00111        0.10014 )
      Ey  (       -0.01440        0.16387        0.02159 )
      Ez  (        0.08740       -0.00082        0.05053 )
           atom   91  H     Mean Z*:        0.09723
      Ex  (        0.13647        0.04864       -0.06871 )
      Ey  (        0.02951        0.10432        0.07622 )
      Ez  (       -0.04550        0.07606        0.05089 )
           atom   92  H     Mean Z*:        0.09723
      Ex  (        0.14798        0.03839        0.01445 )
      Ey  (        0.05584        0.00096       -0.04268 )
      Ez  (        0.02473       -0.06491        0.14274 )
           atom   93  H     Mean Z*:        0.09723
      Ex  (       -0.00308        0.03137       -0.04418 )
      Ey  (        0.04883        0.15203        0.00883 )
      Ez  (       -0.06858        0.01104        0.14274 )
           atom   94  H     Mean Z*:        0.09723
      Ex  (        0.14798       -0.02641       -0.03137 )
      Ey  (       -0.04193        0.09318       -0.09751 )
      Ez  (       -0.04440       -0.07528        0.05053 )
           atom   95  H     Mean Z*:        0.09723
      Ex  (       -0.00308        0.03120       -0.04431 )
      Ey  (        0.04838        0.15002        0.01175 )
      Ez  (       -0.06890        0.00954        0.14475 )
           atom   96  H     Mean Z*:        0.09723
      Ex  (        0.14620        0.03781        0.01198 )
      Ey  (        0.05499        0.00074       -0.04424 )
      Ez  (        0.02619       -0.06444        0.14475 )
           atom   97  H     Mean Z*:        0.09723
      Ex  (        0.13647        0.04857       -0.06876 )
      Ey  (        0.03306        0.10468        0.07593 )
      Ez  (       -0.04299        0.07610        0.05053 )
           atom   98  H     Mean Z*:        0.09723
      Ex  (        0.14620       -0.02390       -0.03165 )
      Ey  (       -0.04302        0.09459       -0.09762 )
      Ez  (       -0.04312       -0.07743        0.05089 )
           atom   99  H     Mean Z*:        0.09723
      Ex  (        0.13647       -0.04864        0.06871 )
      Ey  (       -0.02951        0.10432        0.07622 )
      Ez  (        0.04550        0.07606        0.05089 )
           atom  100  H     Mean Z*:        0.09723
      Ex  (       -0.00308       -0.03120        0.04431 )
      Ey  (       -0.04838        0.15002        0.01175 )
      Ez  (        0.06890        0.00954        0.14475 )
           atom  101  H     Mean Z*:        0.09723
      Ex  (        0.13647       -0.04857        0.06876 )
      Ey  (       -0.03306        0.10468        0.07593 )
      Ez  (        0.04299        0.07610        0.05053 )
           atom  102  H     Mean Z*:        0.09723
      Ex  (       -0.00308       -0.03137        0.04418 )
      Ey  (       -0.04883        0.15203        0.00883 )
      Ez  (        0.06858        0.01104        0.14274 )
           atom  103  H     Mean Z*:        0.09723
      Ex  (        0.14798       -0.03839       -0.01445 )
      Ey  (       -0.05584        0.00096       -0.04268 )
      Ez  (       -0.02473       -0.06491        0.14274 )
           atom  104  H     Mean Z*:        0.09723
      Ex  (        0.07729        0.09478       -0.03233 )
      Ey  (        0.07760        0.06965        0.03250 )
      Ez  (       -0.04271        0.05490        0.14475 )
           atom  105  H     Mean Z*:        0.09723
      Ex  (        0.14620        0.02390        0.03165 )
      Ey  (        0.04302        0.09459       -0.09762 )
      Ez  (        0.04312       -0.07743        0.05089 )
           atom  106  H     Mean Z*:        0.09723
      Ex  (        0.07852       -0.00394       -0.10037 )
      Ey  (        0.01518        0.16228        0.02140 )
      Ez  (       -0.08861        0.00137        0.05089 )
           atom  107  H     Mean Z*:        0.09723
      Ex  (        0.14798        0.02641        0.03137 )
      Ey  (        0.04193        0.09318       -0.09751 )
      Ez  (        0.04440       -0.07528        0.05053 )
           atom  108  H     Mean Z*:        0.09723
      Ex  (        0.07852        0.09594       -0.02974 )
      Ey  (        0.07849        0.07042        0.03385 )
      Ez  (       -0.04385        0.05387        0.14274 )
           atom  109  H     Mean Z*:        0.09723
      Ex  (        0.14620       -0.03781       -0.01198 )
      Ey  (       -0.05499        0.00074       -0.04424 )
      Ez  (       -0.02619       -0.06444        0.14475 )
           atom  110  H     Mean Z*:        0.09723
      Ex  (        0.07728       -0.00111       -0.10014 )
      Ey  (        0.01440        0.16387        0.02159 )
      Ez  (       -0.08740       -0.00082        0.05053 )
           atom  111  H     Mean Z*:        0.27907
      Ex  (        0.34448        0.00000        0.00000 )
      Ey  (        0.00000        0.34448        0.00000 )
      Ez  (        0.00000        0.00000        0.14826 )
           atom  112  H     Mean Z*:        0.27907
      Ex  (        0.34448       -0.00000       -0.00000 )
      Ey  (       -0.00000        0.17007        0.06167 )
      Ez  (        0.00000        0.06167        0.32268 )
           atom  113  H     Mean Z*:        0.27907
      Ex  (        0.21367       -0.07552       -0.05340 )
      Ey  (       -0.07552        0.30088       -0.03083 )
      Ez  (       -0.05340       -0.03083        0.32268 )
           atom  114  H     Mean Z*:        0.27907
      Ex  (        0.21367        0.07552        0.05340 )
      Ey  (        0.07552        0.30088       -0.03083 )
      Ez  (        0.05340       -0.03083        0.32268 )

          Effective charges Sum: Mean:       -0.40421
             -0.40420       -0.00000        0.00000
              0.00000       -0.40420        0.00000
              0.00000        0.00000       -0.40422

          Effective charges (d Force / dE) in cartesian axis with asr applied: 
           atom    1  Zr    Mean Z*:        4.88586
      E*x (        4.80161        0.00000       -0.00000 )
      E*y (        0.00000        4.73133       -0.55626 )
      E*z (       -0.00000       -0.55627        5.12464 )
           atom    2  Zr    Mean Z*:        4.88586
      E*x (        5.51796       -0.00000       -0.00000 )
      E*y (       -0.00000        4.49254       -0.21856 )
      E*z (       -0.00000       -0.21856        4.64707 )
           atom    3  Zr    Mean Z*:        4.88586
      E*x (        4.74890       -0.44402        0.18928 )
      E*y (       -0.44402        5.26160        0.10928 )
      E*z (        0.18928        0.10928        4.64707 )
           atom    4  Zr    Mean Z*:        4.88586
      E*x (        4.74890        0.44402       -0.18928 )
      E*y (        0.44402        5.26160        0.10928 )
      E*z (       -0.18928        0.10928        4.64707 )
           atom    5  Zr    Mean Z*:        4.88586
      E*x (        4.74890        0.03043       -0.48174 )
      E*y (        0.03043        4.78404        0.27813 )
      E*z (       -0.48175        0.27814        5.12464 )
           atom    6  Zr    Mean Z*:        4.88586
      E*x (        4.74890       -0.03043        0.48174 )
      E*y (       -0.03043        4.78404        0.27813 )
      E*z (        0.48175        0.27814        5.12464 )
           atom    7  O     Mean Z*:       -1.30601
      E*x (       -1.25390        0.06018        0.04256 )
      E*y (        0.06018       -1.32339        0.02457 )
      E*z (        0.04255        0.02457       -1.34076 )
           atom    8  O     Mean Z*:       -1.58849
      E*x (       -1.73989       -0.46514        1.26963 )
      E*y (       -0.30622       -0.93466        0.09126 )
      E*z (        1.35166        0.29900       -2.09093 )
           atom    9  O     Mean Z*:       -1.58849
      E*x (       -1.88947       -1.04637        0.82829 )
      E*y (       -1.23031       -1.75388        0.52046 )
      E*z (        0.72858        0.34333       -1.12210 )
           atom   10  O     Mean Z*:       -1.58850
      E*x (       -1.88949       -0.43213        1.26262 )
      E*y (       -0.27681       -0.92085        0.04881 )
      E*z (        1.40281        0.22593       -1.95516 )
           atom   11  O     Mean Z*:       -1.58851
      E*x (       -1.73992       -1.04198        0.86176 )
      E*y (       -1.17231       -1.83981        0.61905 )
      E*z (        0.73926        0.41128       -1.18580 )
           atom   12  O     Mean Z*:       -1.58849
      E*x (       -2.77361        0.71985       -0.86488 )
      E*y (        0.53591       -0.86974        0.45709 )
      E*z (       -0.66162        0.45931       -1.12210 )
           atom   13  O     Mean Z*:       -1.58850
      E*x (       -0.85603       -0.31986       -0.58904 )
      E*y (       -0.16454       -1.95430       -1.11787 )
      E*z (       -0.50574       -1.32783       -1.95516 )
           atom   14  O     Mean Z*:       -1.58850
      E*x (       -1.46998        0.51901       -0.67358 )
      E*y (        0.67433       -1.34035        1.06906 )
      E*z (       -0.89706        1.10190       -1.95516 )
           atom   15  O     Mean Z*:       -1.58851
      E*x (       -0.85603        0.66199        0.10523 )
      E*y (        0.53167       -2.72370       -1.05583 )
      E*z (       -0.01345       -0.84586       -1.18580 )
           atom   16  O     Mean Z*:       -1.58849
      E*x (       -1.46998        0.46205       -0.71385 )
      E*y (        0.62097       -1.20458        1.05390 )
      E*z (       -0.93477        1.02107       -2.09093 )
           atom   17  O     Mean Z*:       -1.58849
      E*x (       -0.80197       -0.23530       -0.55578 )
      E*y (       -0.07638       -1.87259       -1.14516 )
      E*z (       -0.41689       -1.32007       -2.09093 )
           atom   18  O     Mean Z*:       -1.58851
      E*x (       -2.77365        0.57548       -0.96699 )
      E*y (        0.44515       -0.80608        0.43678 )
      E*z (       -0.72581        0.43458       -1.18580 )
           atom   19  O     Mean Z*:       -1.58849
      E*x (       -0.80195        0.60243        0.03659 )
      E*y (        0.41849       -2.84141       -0.97755 )
      E*z (       -0.06696       -0.80264       -1.12210 )
           atom   20  O     Mean Z*:       -1.58849
      E*x (       -2.77361       -0.71985        0.86488 )
      E*y (       -0.53591       -0.86974        0.45709 )
      E*z (        0.66162        0.45931       -1.12210 )
           atom   21  O     Mean Z*:       -1.58849
      E*x (       -1.46998       -0.46205        0.71385 )
      E*y (       -0.62097       -1.20458        1.05390 )
      E*z (        0.93477        1.02107       -2.09093 )
           atom   22  O     Mean Z*:       -1.58851
      E*x (       -2.77365       -0.57548        0.96699 )
      E*y (       -0.44515       -0.80608        0.43678 )
      E*z (        0.72581        0.43458       -1.18580 )
           atom   23  O     Mean Z*:       -1.58850
      E*x (       -1.46998       -0.51901        0.67358 )
      E*y (       -0.67433       -1.34035        1.06906 )
      E*z (        0.89706        1.10190       -1.95516 )
           atom   24  O     Mean Z*:       -1.58850
      E*x (       -0.85603        0.31986        0.58904 )
      E*y (        0.16454       -1.95430       -1.11787 )
      E*z (        0.50574       -1.32783       -1.95516 )
           atom   25  O     Mean Z*:       -1.58849
      E*x (       -1.73989        0.46514       -1.26963 )
      E*y (        0.30622       -0.93466        0.09126 )
      E*z (       -1.35166        0.29900       -2.09093 )
           atom   26  O     Mean Z*:       -1.58849
      E*x (       -0.80195       -0.60243       -0.03659 )
      E*y (       -0.41849       -2.84141       -0.97755 )
      E*z (        0.06696       -0.80264       -1.12210 )
           atom   27  O     Mean Z*:       -1.58849
      E*x (       -1.88947        1.04637       -0.82829 )
      E*y (        1.23031       -1.75388        0.52046 )
      E*z (       -0.72858        0.34333       -1.12210 )
           atom   28  O     Mean Z*:       -1.58851
      E*x (       -0.85603       -0.66199       -0.10523 )
      E*y (       -0.53167       -2.72370       -1.05583 )
      E*z (        0.01345       -0.84586       -1.18580 )
           atom   29  O     Mean Z*:       -1.58850
      E*x (       -1.88949        0.43213       -1.26262 )
      E*y (        0.27681       -0.92085        0.04881 )
      E*z (       -1.40281        0.22593       -1.95516 )
           atom   30  O     Mean Z*:       -1.58849
      E*x (       -0.80197        0.23530        0.55578 )
      E*y (        0.07638       -1.87259       -1.14516 )
      E*z (        0.41689       -1.32007       -2.09093 )
           atom   31  O     Mean Z*:       -1.58851
      E*x (       -1.73992        1.04198       -0.86176 )
      E*y (        1.17231       -1.83981        0.61905 )
      E*z (       -0.73926        0.41128       -1.18580 )
           atom   32  O     Mean Z*:       -1.30602
      E*x (       -1.35814       -0.00000        0.00000 )
      E*y (        0.00000       -1.35814       -0.00000 )
      E*z (       -0.00000        0.00000       -1.20177 )
           atom   33  O     Mean Z*:       -1.30601
      E*x (       -1.35814       -0.00000        0.00000 )
      E*y (        0.00000       -1.21915       -0.04914 )
      E*z (        0.00000       -0.04914       -1.34076 )
           atom   34  O     Mean Z*:       -1.30601
      E*x (       -1.25390       -0.06018       -0.04256 )
      E*y (       -0.06018       -1.32339        0.02457 )
      E*z (       -0.04255        0.02457       -1.34076 )
           atom   35  O     Mean Z*:       -2.02429
      E*x (       -1.61249        0.47549        0.33623 )
      E*y (        0.47549       -2.16155        0.19412 )
      E*z (        0.33623        0.19412       -2.29882 )
           atom   36  O     Mean Z*:       -2.02429
      E*x (       -1.61249       -0.47549       -0.33623 )
      E*y (       -0.47549       -2.16155        0.19412 )
      E*z (       -0.33623        0.19412       -2.29882 )
           atom   37  O     Mean Z*:       -2.02429
      E*x (       -2.43607       -0.00000        0.00000 )
      E*y (        0.00000       -1.33797       -0.38824 )
      E*z (        0.00000       -0.38825       -2.29882 )
           atom   38  O     Mean Z*:       -2.02431
      E*x (       -2.43610       -0.00000       -0.00000 )
      E*y (        0.00000       -2.43610        0.00000 )
      E*z (        0.00000        0.00000       -1.20072 )
           atom   39  C     Mean Z*:        2.02380
      E*x (        1.50528        1.21288       -0.82836 )
      E*y (        1.17422        3.05744        0.40097 )
      E*z (       -0.81468        0.42464        1.50868 )
           atom   40  C     Mean Z*:       -0.05704
      E*x (       -0.03799       -0.01371       -0.08763 )
      E*y (        0.12594       -0.04414       -0.10924 )
      E*z (        0.01065        0.07085       -0.08898 )
           atom   41  C     Mean Z*:       -0.05705
      E*x (       -0.05595        0.08799       -0.01618 )
      E*y (       -0.05927       -0.08638        0.07477 )
      E*z (       -0.11984       -0.09600       -0.02882 )
           atom   42  C     Mean Z*:       -0.05704
      E*x (       -0.05595       -0.01407       -0.08835 )
      E*y (        0.13275       -0.04188       -0.11172 )
      E*z (        0.01593        0.05904       -0.07331 )
           atom   43  C     Mean Z*:       -0.05705
      E*x (       -0.03800        0.08718       -0.01629 )
      E*y (       -0.05203       -0.09609        0.08921 )
      E*z (       -0.11518       -0.09088       -0.03707 )
           atom   44  C     Mean Z*:       -0.05705
      E*x (       -0.06634        0.05327       -0.05666 )
      E*y (       -0.09399       -0.07600       -0.05140 )
      E*z (        0.14306       -0.05579       -0.02882 )
           atom   45  C     Mean Z*:       -0.05704
      E*x (       -0.09678       -0.10917       -0.05258 )
      E*y (        0.03765       -0.00104        0.13238 )
      E*z (        0.04316       -0.04331       -0.07331 )
           atom   46  C     Mean Z*:       -0.05704
      E*x (        0.00599       -0.09698        0.14093 )
      E*y (        0.04984       -0.10382       -0.02065 )
      E*z (       -0.05909       -0.01572       -0.07331 )
           atom   47  C     Mean Z*:       -0.05705
      E*x (       -0.09679        0.08597        0.08540 )
      E*y (       -0.05324       -0.03730       -0.03050 )
      E*z (       -0.02111        0.14519       -0.03707 )
           atom   48  C     Mean Z*:       -0.05704
      E*x (        0.00600       -0.10054        0.13841 )
      E*y (        0.03910       -0.08812       -0.02127 )
      E*z (       -0.06669       -0.02620       -0.08898 )
           atom   49  C     Mean Z*:       -0.05704
      E*x (       -0.09120       -0.09522       -0.05079 )
      E*y (        0.04443        0.00907        0.13050 )
      E*z (        0.05604       -0.04465       -0.08898 )
           atom   50  C     Mean Z*:       -0.05705
      E*x (       -0.06634        0.03566       -0.06911 )
      E*y (       -0.10355       -0.06775       -0.05871 )
      E*z (        0.13630       -0.05431       -0.03707 )
           atom   51  C     Mean Z*:       -0.05705
      E*x (       -0.09121        0.07963        0.07284 )
      E*y (       -0.06764       -0.05112       -0.02337 )
      E*z (       -0.02321        0.15179       -0.02882 )
           atom   52  C     Mean Z*:       -0.05705
      E*x (       -0.06634       -0.05327        0.05666 )
      E*y (        0.09399       -0.07600       -0.05140 )
      E*z (       -0.14306       -0.05579       -0.02882 )
           atom   53  C     Mean Z*:       -0.05704
      E*x (        0.00600        0.10054       -0.13841 )
      E*y (       -0.03910       -0.08812       -0.02127 )
      E*z (        0.06669       -0.02620       -0.08898 )
           atom   54  C     Mean Z*:       -0.05705
      E*x (       -0.06634       -0.03566        0.06911 )
      E*y (        0.10355       -0.06775       -0.05871 )
      E*z (       -0.13630       -0.05431       -0.03707 )
           atom   55  C     Mean Z*:       -0.05704
      E*x (        0.00599        0.09698       -0.14093 )
      E*y (       -0.04984       -0.10382       -0.02065 )
      E*z (        0.05909       -0.01572       -0.07331 )
           atom   56  C     Mean Z*:       -0.05704
      E*x (       -0.09678        0.10917        0.05258 )
      E*y (       -0.03765       -0.00104        0.13238 )
      E*z (       -0.04316       -0.04331       -0.07331 )
           atom   57  C     Mean Z*:       -0.05704
      E*x (       -0.03799        0.01371        0.08763 )
      E*y (       -0.12594       -0.04414       -0.10924 )
      E*z (       -0.01065        0.07085       -0.08898 )
           atom   58  C     Mean Z*:       -0.05705
      E*x (       -0.09121       -0.07963       -0.07284 )
      E*y (        0.06764       -0.05112       -0.02337 )
      E*z (        0.02321        0.15179       -0.02882 )
           atom   59  C     Mean Z*:       -0.05705
      E*x (       -0.05595       -0.08799        0.01618 )
      E*y (        0.05927       -0.08638        0.07477 )
      E*z (        0.11984       -0.09600       -0.02882 )
           atom   60  C     Mean Z*:       -0.05705
      E*x (       -0.09679       -0.08597       -0.08540 )
      E*y (        0.05324       -0.03730       -0.03050 )
      E*z (        0.02111        0.14519       -0.03707 )
           atom   61  C     Mean Z*:       -0.05704
      E*x (       -0.05595        0.01407        0.08835 )
      E*y (       -0.13275       -0.04188       -0.11172 )
      E*z (       -0.01593        0.05904       -0.07331 )
           atom   62  C     Mean Z*:       -0.05704
      E*x (       -0.09120        0.09522        0.05079 )
      E*y (       -0.04443        0.00907        0.13050 )
      E*z (       -0.05604       -0.04465       -0.08898 )
           atom   63  C     Mean Z*:       -0.05705
      E*x (       -0.03800       -0.08718        0.01629 )
      E*y (        0.05203       -0.09609        0.08921 )
      E*z (        0.11518       -0.09088       -0.03707 )
           atom   64  C     Mean Z*:        2.02379
      E*x (        1.63574        0.30136       -1.43189 )
      E*y (        0.30136        1.98372        0.82670 )
      E*z (       -1.47290        0.85038        2.45192 )
           atom   65  C     Mean Z*:        2.02380
      E*x (        1.63575        1.24955       -0.76143 )
      E*y (        1.28821        2.92696        0.51690 )
      E*z (       -0.77509        0.49322        1.50868 )
           atom   66  C     Mean Z*:        2.02379
      E*x (        1.50527        0.37668       -1.41963 )
      E*y (        0.37668        1.94022        0.81962 )
      E*z (       -1.37862        0.79595        2.62588 )
           atom   67  C     Mean Z*:        2.02379
      E*x (        2.15771       -0.00000       -0.00000 )
      E*y (       -0.00000        1.46175       -1.65341 )
      E*z (       -0.00000       -1.70076        2.45192 )
           atom   68  C     Mean Z*:        2.02380
      E*x (        1.50528       -1.21288        0.82836 )
      E*y (       -1.17422        3.05744        0.40097 )
      E*z (        0.81468        0.42464        1.50868 )
           atom   69  C     Mean Z*:        2.02380
      E*x (        3.70304       -0.09466       -0.06693 )
      E*y (       -0.05600        0.85967       -0.91787 )
      E*z (       -0.03960       -0.91786        1.50868 )
           atom   70  C     Mean Z*:        2.02379
      E*x (        1.50527       -0.37668        1.41963 )
      E*y (       -0.37668        1.94022        0.81962 )
      E*z (        1.37862        0.79595        2.62588 )
           atom   71  C     Mean Z*:        2.02380
      E*x (        3.70304        0.09466        0.06693 )
      E*y (        0.05600        0.85967       -0.91787 )
      E*z (        0.03960       -0.91786        1.50868 )
           atom   72  C     Mean Z*:        2.02380
      E*x (        1.63575       -1.24955        0.76143 )
      E*y (       -1.28821        2.92696        0.51690 )
      E*z (        0.77509        0.49322        1.50868 )
           atom   73  C     Mean Z*:        2.02379
      E*x (        2.15770       -0.00000       -0.00000 )
      E*y (        0.00000        1.28780       -1.63925 )
      E*z (        0.00000       -1.59190        2.62588 )
           atom   74  C     Mean Z*:        2.02379
      E*x (        1.63574       -0.30136        1.43189 )
      E*y (       -0.30136        1.98372        0.82670 )
      E*z (        1.47290        0.85038        2.45192 )
           atom   75  C     Mean Z*:       -0.36130
      E*x (       -1.07165       -0.01882       -0.01331 )
      E*y (       -0.00619       -0.00235        0.01067 )
      E*z (       -0.00438        0.01067       -0.00990 )
           atom   76  C     Mean Z*:       -0.36127
      E*x (       -0.01743       -0.00000       -0.00000 )
      E*y (       -0.00000       -0.33928        0.51024 )
      E*z (       -0.00000        0.49477       -0.72709 )
           atom   77  C     Mean Z*:       -0.36130
      E*x (       -1.07165        0.01882        0.01331 )
      E*y (        0.00619       -0.00235        0.01067 )
      E*z (        0.00438        0.01067       -0.00990 )
           atom   78  C     Mean Z*:       -0.36129
      E*x (       -0.01744       -0.00000        0.00000 )
      E*y (        0.00000       -0.36819        0.50499 )
      E*z (       -0.00000        0.52046       -0.69825 )
           atom   79  C     Mean Z*:       -0.36129
      E*x (       -0.28050        0.15188        0.43733 )
      E*y (        0.15188       -0.10513       -0.25249 )
      E*z (        0.45073       -0.26023       -0.69825 )
           atom   80  C     Mean Z*:       -0.36127
      E*x (       -0.25882       -0.13937       -0.44188 )
      E*y (       -0.13937       -0.09789       -0.25512 )
      E*z (       -0.42848       -0.24738       -0.72709 )
           atom   81  C     Mean Z*:       -0.36130
      E*x (       -0.25885       -0.46308        0.01589 )
      E*y (       -0.45045       -0.81516        0.00619 )
      E*z (        0.01143       -0.00155       -0.00990 )
           atom   82  C     Mean Z*:       -0.36130
      E*x (       -0.28051        0.46296       -0.00258 )
      E*y (        0.47559       -0.79350       -0.01686 )
      E*z (       -0.00706       -0.00913       -0.00990 )
           atom   83  C     Mean Z*:       -0.36130
      E*x (       -0.28051       -0.46296        0.00258 )
      E*y (       -0.47559       -0.79350       -0.01686 )
      E*z (        0.00706       -0.00913       -0.00990 )
           atom   84  C     Mean Z*:       -0.36129
      E*x (       -0.28050       -0.15188       -0.43733 )
      E*y (       -0.15188       -0.10513       -0.25249 )
      E*z (       -0.45073       -0.26023       -0.69825 )
           atom   85  C     Mean Z*:       -0.36127
      E*x (       -0.25882        0.13937        0.44188 )
      E*y (        0.13937       -0.09789       -0.25512 )
      E*z (        0.42848       -0.24738       -0.72709 )
           atom   86  C     Mean Z*:       -0.36130
      E*x (       -0.25885        0.46308       -0.01589 )
      E*y (        0.45045       -0.81516        0.00619 )
      E*z (       -0.01143       -0.00155       -0.00990 )
           atom   87  H     Mean Z*:        0.10078
      E*x (        0.08083       -0.09478        0.03233 )
      E*y (       -0.07760        0.07320        0.03250 )
      E*z (        0.04271        0.05490        0.14830 )
           atom   88  H     Mean Z*:        0.10077
      E*x (        0.08206        0.00394        0.10037 )
      E*y (       -0.01518        0.16582        0.02140 )
      E*z (        0.08861        0.00137        0.05444 )
           atom   89  H     Mean Z*:        0.10077
      E*x (        0.08206       -0.09594        0.02974 )
      E*y (       -0.07849        0.07397        0.03385 )
      E*z (        0.04385        0.05387        0.14629 )
           atom   90  H     Mean Z*:        0.10077
      E*x (        0.08083        0.00111        0.10014 )
      E*y (       -0.01440        0.16741        0.02159 )
      E*z (        0.08740       -0.00082        0.05407 )
           atom   91  H     Mean Z*:        0.10077
      E*x (        0.14002        0.04864       -0.06871 )
      E*y (        0.02951        0.10787        0.07622 )
      E*z (       -0.04550        0.07606        0.05444 )
           atom   92  H     Mean Z*:        0.10077
      E*x (        0.15152        0.03839        0.01445 )
      E*y (        0.05584        0.00451       -0.04268 )
      E*z (        0.02473       -0.06491        0.14629 )
           atom   93  H     Mean Z*:        0.10077
      E*x (        0.00046        0.03137       -0.04418 )
      E*y (        0.04883        0.15557        0.00883 )
      E*z (       -0.06858        0.01104        0.14629 )
           atom   94  H     Mean Z*:        0.10077
      E*x (        0.15152       -0.02641       -0.03137 )
      E*y (       -0.04193        0.09672       -0.09751 )
      E*z (       -0.04440       -0.07528        0.05407 )
           atom   95  H     Mean Z*:        0.10078
      E*x (        0.00047        0.03120       -0.04431 )
      E*y (        0.04838        0.15357        0.01175 )
      E*z (       -0.06890        0.00954        0.14830 )
           atom   96  H     Mean Z*:        0.10078
      E*x (        0.14975        0.03781        0.01198 )
      E*y (        0.05499        0.00428       -0.04424 )
      E*z (        0.02619       -0.06444        0.14830 )
           atom   97  H     Mean Z*:        0.10077
      E*x (        0.14002        0.04857       -0.06876 )
      E*y (        0.03306        0.10823        0.07593 )
      E*z (       -0.04299        0.07610        0.05407 )
           atom   98  H     Mean Z*:        0.10077
      E*x (        0.14975       -0.02390       -0.03165 )
      E*y (       -0.04302        0.09814       -0.09762 )
      E*z (       -0.04312       -0.07743        0.05444 )
           atom   99  H     Mean Z*:        0.10077
      E*x (        0.14002       -0.04864        0.06871 )
      E*y (       -0.02951        0.10787        0.07622 )
      E*z (        0.04550        0.07606        0.05444 )
           atom  100  H     Mean Z*:        0.10078
      E*x (        0.00047       -0.03120        0.04431 )
      E*y (       -0.04838        0.15357        0.01175 )
      E*z (        0.06890        0.00954        0.14830 )
           atom  101  H     Mean Z*:        0.10077
      E*x (        0.14002       -0.04857        0.06876 )
      E*y (       -0.03306        0.10823        0.07593 )
      E*z (        0.04299        0.07610        0.05407 )
           atom  102  H     Mean Z*:        0.10077
      E*x (        0.00046       -0.03137        0.04418 )
      E*y (       -0.04883        0.15557        0.00883 )
      E*z (        0.06858        0.01104        0.14629 )
           atom  103  H     Mean Z*:        0.10077
      E*x (        0.15152       -0.03839       -0.01445 )
      E*y (       -0.05584        0.00451       -0.04268 )
      E*z (       -0.02473       -0.06491        0.14629 )
           atom  104  H     Mean Z*:        0.10078
      E*x (        0.08083        0.09478       -0.03233 )
      E*y (        0.07760        0.07320        0.03250 )
      E*z (       -0.04271        0.05490        0.14830 )
           atom  105  H     Mean Z*:        0.10077
      E*x (        0.14975        0.02390        0.03165 )
      E*y (        0.04302        0.09814       -0.09762 )
      E*z (        0.04312       -0.07743        0.05444 )
           atom  106  H     Mean Z*:        0.10077
      E*x (        0.08206       -0.00394       -0.10037 )
      E*y (        0.01518        0.16582        0.02140 )
      E*z (       -0.08861        0.00137        0.05444 )
           atom  107  H     Mean Z*:        0.10077
      E*x (        0.15152        0.02641        0.03137 )
      E*y (        0.04193        0.09672       -0.09751 )
      E*z (        0.04440       -0.07528        0.05407 )
           atom  108  H     Mean Z*:        0.10077
      E*x (        0.08206        0.09594       -0.02974 )
      E*y (        0.07849        0.07397        0.03385 )
      E*z (       -0.04385        0.05387        0.14629 )
           atom  109  H     Mean Z*:        0.10078
      E*x (        0.14975       -0.03781       -0.01198 )
      E*y (       -0.05499        0.00428       -0.04424 )
      E*z (       -0.02619       -0.06444        0.14830 )
           atom  110  H     Mean Z*:        0.10077
      E*x (        0.08083       -0.00111       -0.10014 )
      E*y (        0.01440        0.16741        0.02159 )
      E*z (       -0.08740       -0.00082        0.05407 )
           atom  111  H     Mean Z*:        0.28262
      E*x (        0.34802        0.00000       -0.00000 )
      E*y (        0.00000        0.34802       -0.00000 )
      E*z (       -0.00000        0.00000        0.15181 )
           atom  112  H     Mean Z*:        0.28262
      E*x (        0.34803       -0.00000       -0.00000 )
      E*y (        0.00000        0.17361        0.06167 )
      E*z (       -0.00000        0.06167        0.32622 )
           atom  113  H     Mean Z*:        0.28262
      E*x (        0.21722       -0.07552       -0.05340 )
      E*y (       -0.07552        0.30442       -0.03083 )
      E*z (       -0.05340       -0.03083        0.32622 )
           atom  114  H     Mean Z*:        0.28262
      E*x (        0.21722        0.07552        0.05340 )
      E*y (        0.07552        0.30442       -0.03083 )
      E*z (        0.05340       -0.03083        0.32622 )

     PHONON       :      4h36m CPU      4h40m WALL

     INITIALIZATION: 
     phq_setup    :      0.27s CPU      0.36s WALL (       1 calls)
     phq_init     :    677.28s CPU    694.83s WALL (       1 calls)

     phq_init     :    677.28s CPU    694.83s WALL (       1 calls)
     set_drhoc    :      0.01s CPU      0.01s WALL (       1 calls)
     init_vloc    :      0.00s CPU      0.00s WALL (       1 calls)
     init_us_1    :      0.04s CPU      0.10s WALL (       1 calls)
     init_us_2    :      0.21s CPU      0.23s WALL (      18 calls)
     newd         :      0.33s CPU      0.52s WALL (       1 calls)
     dvanqq       :    150.73s CPU    154.56s WALL (       1 calls)
     drho         :    523.64s CPU    537.29s WALL (       1 calls)
     drhous       :    391.43s CPU    400.45s WALL (       1 calls)
     nldyntot     :      5.37s CPU      5.45s WALL (       1 calls)
     cmpt_qdipol  :      0.00s CPU      0.00s WALL (       1 calls)

     DIELECTRIC CONSTANT AND EFFECTIVE CHARGES:
     solve_e      :   5240.82s CPU   5317.84s WALL (       1 calls)
     dielec       :      0.02s CPU      0.05s WALL (       1 calls)
     zstar_eu     :  10682.67s CPU  10793.61s WALL (       1 calls)
     newdq        :      7.92s CPU      8.00s WALL (      10 calls)
     adddvscf     :      6.96s CPU      6.99s WALL (      27 calls)

     dvqpsi_us    :   2351.91s CPU   2357.06s WALL (     342 calls)
                                        0.00s GPU  (     342 calls)
     dvqpsi_us_on :   2216.06s CPU   2216.96s WALL (     342 calls)

     add_vuspsi   :    859.50s CPU    859.86s WALL (    1996 calls)
     addusdbec    :    268.01s CPU    272.20s WALL (     375 calls)


      General routines
     calbec       :   7985.51s CPU   8109.57s WALL (   12618 calls)
     fft          :     32.10s CPU     32.43s WALL (   10424 calls)
     ffts         :     27.22s CPU     27.33s WALL (    1090 calls)
     fftw         :    649.33s CPU    670.79s WALL (  871096 calls)
     davcio       :      0.59s CPU      7.80s WALL (    3960 calls)
     write_rec    :      0.44s CPU     17.90s WALL (      10 calls)

      Additional routines
     ch_psi       :   5073.18s CPU   5129.29s WALL (    1996 calls)
     last         :   1987.72s CPU   2012.18s WALL (    1996 calls)
     Hesh         :      1.90s CPU      1.98s WALL (    1996 calls)
     ch_psi_all_k :   1985.78s CPU   2010.18s WALL (    1996 calls)
                                        0.00s GPU  (    1996 calls)
     ch_psi_calbe :    894.42s CPU    909.97s WALL (    1996 calls)
                                        0.00s GPU  (    1996 calls)
     h_psi_bgrp   :   2218.69s CPU   2249.96s WALL (    1996 calls)
     h_psi        :   2218.68s CPU   2249.95s WALL (    1996 calls)
     h_psi:pot    :   2214.96s CPU   2246.22s WALL (    1996 calls)
     h_psi:calbec :    888.05s CPU    903.50s WALL (    1996 calls)
     s_psi_bgrp   :   1754.14s CPU   1754.81s WALL (    4028 calls)
     s_psi        :   1749.24s CPU   1749.85s WALL (    4028 calls)


     PHONON       :      4h36m CPU      4h40m WALL


   This run was terminated on:  16:40:25  14May2025            

=------------------------------------------------------------------------------=
   JOB DONE.
=------------------------------------------------------------------------------=
