
                                 *****************
                                 * O   R   C   A *
                                 *****************

                                            #,                                       
                                            ###                                      
                                            ####                                     
                                            #####                                    
                                            ######                                   
                                           ########,                                 
                                     ,,################,,,,,                         
                               ,,#################################,,                 
                          ,,##########################################,,             
                       ,#########################################, ''#####,          
                    ,#############################################,,   '####,        
                  ,##################################################,,,,####,       
                ,###########''''           ''''###############################       
              ,#####''   ,,,,##########,,,,          '''####'''          '####       
            ,##' ,,,,###########################,,,                        '##       
           ' ,,###''''                  '''############,,,                           
         ,,##''                                '''############,,,,        ,,,,,,###''
      ,#''                                            '''#######################'''  
     '                                                          ''''####''''         
             ,#######,   #######,   ,#######,      ##                                
            ,#'     '#,  ##    ##  ,#'     '#,    #''#        ,####,    ,#,          
            ##       ##  ##   ,#'  ##            #'  '#       #'       ,# #          
            ##       ##  #######   ##           ,######,      #####,      #          
            '#,     ,#'  ##    ##  '#,     ,#' ,#      #,     #,   #      #          
             '#######'   ##     ##  '#######'  #'      '#     '####' #    #          



                #########################################################
                #                        -***-                          #
                #          Department of theory and spectroscopy        #
                #                                                       #
                #                      Frank Neese                      #
                #                                                       #
                #     Directorship, Architecture, Infrastructure        #
                #                    SHARK, DRIVERS                     #
                #        Core code/Algorithms in most modules           #
                #                                                       #
                #        Max Planck Institute fuer Kohlenforschung      #
                #                Kaiser Wilhelm Platz 1                 #
                #                 D-45470 Muelheim/Ruhr                 #
                #                      Germany                          #
                #                                                       #
                #                  All rights reserved                  #
                #                        -***-                          #
                #########################################################


                         Program Version 6.1.0  -  RELEASE   -
                                (GIT: $679e74b$)
                          ($2025-06-10 18:02:51 +0200$)


 With contributions from (in alphabetic order):
[Max-Planck-Institut fuer Kohlenforschung]                               
  Daniel Aravena         : Magnetic Suceptibility                        
  Michael Atanasov       : Ab Initio Ligand Field Theory (pilot matlab implementation)
  Alexander A. Auer      : GIAO ZORA, VPT2 properties, NMR spectrum      
  Ute Becker             : All parallelization in ORCA, NUMFREQ, NUMCALC 
  Giovanni Bistoni       : ED, misc. LED, open-shell LED, HFLD           
  Dmytro Bykov           : pre 5.0 version of the SCF Hessian            
  Marcos Casanova-Páez   : Triplet and SCS-CIS(D). UHF-(DLPNO)-IP/EA/STEOM-CCSD. UHF-CVS-IP/STEOM-CCSD   
  Vijay G. Chilkuri      : MRCI spin determinant printing, contributions to CSF-ICE 
  Pauline Colinet        : FMM embedding                                 
  Dipayan Datta          : RHF DLPNO-CCSD density                        
  Achintya Kumar Dutta   : EOM-CC, STEOM-CC                              
  Nicolas Foglia         : Exact transition moments, OPA infrastructure, MCD improvements    
  Dmitry Ganyushin       : Spin-Orbit,Spin-Spin,Magnetic field MRCI      
  Miquel Garcia-Rates    : C-PCM and meta-GGA Hessian, CCSD/C-PCM, Gaussian charge scheme 
  Tiago L. C. Gouveia    : GS-ROHF, GS-ROCIS                             
  Yang Guo               : DLPNO-NEVPT2, F12-NEVPT2, CIM, IAO-localization        
  Andreas Hansen         : Spin unrestricted coupled pair/coupled cluster methods 
  Ingolf Harden          : AUTO-CI MPn and infrastructure                
  Benjamin Helmich-Paris : MC-RPA, TRAH-(SCF,CASSCF), AVAS, COSX integrals, SCF dyn. polar., MC-PDFT, srDFT 
  Lee Huntington         : MR-EOM, pCC                                   
  Robert Izsak           : Overlap fitted RIJCOSX, COSX-SCS-MP3, EOM     
  Riya Kayal             : Wick's Theorem for AUTO-CI, AUTO-CI UHF-CCSDT 
  Emily Kempfer          : AUTO-CI RHF CISDT and CCSDT, approximate NEVPT4
  Christian Kollmar      : KDIIS, OOCD, Brueckner-CCSD(T), CCSD density, CASPT2, CASPT2-K, improved NEVPT2 
  Axel Koslowski         : Symmetry handling                             
  Simone Kossmann        : meta-GGA functionals, TD-DFT gradient, OOMP2, (MP2 Hessian; deprecated post 5.0) 
  Lucas Lang             : DCDCAS, Hyperfine gauge corrections, ICE-SOC+SSC
  Marvin Lechner         : AUTO-CI (C++ implementation), FIC-MRCC        
  Spencer Leger          : CASSCF response                               
  Dagmar Lenk            : GEPOL surface, SMD, ORCA-2-JSON               
  Dimitrios Liakos       : Extrapolation schemes; Compound Job, Property file
  Dimitrios Manganas     : Further ROCIS development; embedding schemes. LFT, Crystal Embedding 
  Dimitrios Pantazis     : SARC Basis sets                               
  Anastasios Papadopoulos: AUTO-CI, single reference methods and gradients 
  Taras Petrenko         : pre 6.0 DFT Hessian and TD-DFT gradient,  ECA, NRVS 
  Petra Pikulova         : Analytic Raman intensities                    
  Peter Pinski           : DLPNO-MP2, DLPNO-MP2 Gradient                 
  Shashank Vittal Rao    : ES-AILFT, MagRelax                            
  Christoph Reimann      : Effective Core Potentials                     
  Marius Retegan         : Local ZFS, SOC                                
  Christoph Riplinger    : Optimizer, TS searches, QM/MM, DLPNO-CCSD(T), (RO)-DLPNO pert. Triples 
  Michael Roemelt        : Original ROCIS implementation, recursive CI coupling coefficients
  Masaaki Saitow         : Open-shell DLPNO-CCSD energy and density      
  Barbara Sandhoefer     : DKH picture change effects                    
  Yorick L. A. Schmerwitz: GMF and freeze-and-release deltaSCF, NEB S-IDPP initial path                    
  Kantharuban Sivalingam : CASSCF convergence/infrastructure, NEVPT2, NEVPT3, NEVPT4(SD), FIC-MRCI and CEPA variants
  Bernardo de Souza      : ESD, SOC TD-DFT                               
  Georgi L. Stoychev     : AutoAux, RI-MP2 NMR, DLPNO-MP2 response, X2C  
  Van Anh Tran           : RI-MP2 g-tensors                              
  Willem Van den Heuvel  : Paramagnetic NMR                              
  Zikuan Wang            : NOTCH, Electric field optimization            
  Frank Wennmohs         : Technical directorship and infrastructure     
  Hang Xu                : AUTO-CI-Response properties                   
                                                                         
[FACCTs GmbH]                                                            
  Markus Bursch, Nicolas Foglia, Miquel Garcia-Rates, Ingolf Harden, Hagen Neugebauer, Anastasios Papadopoulos, 
  Christoph Riplinger, Bernardo de Souza, Georgi L. Stoychev                                                    
                                                                 
  APM, various basis sets, CI-OPT, improved COSX, DLPNO-Multilevel,           
  DOCKER, DRACO, updates on ESD, Fragmentator, GOAT, IRC, LR-CPCM, L-BFGS, MBIS, meta-GGA TD-DFT gradient, ML-optimized integration grids, 
  MM, NACMEs, nearIR, NEB, NEB-TS, NL-DFT gradient (VV10), 2- and 3-layer-ONIOM, interface openCOSMO-RS, QMMM,   
  Crystal-QMMM, RESP, rigid body optimization, SF, symmetry and pop. for TD-DFT, various functionals, SOLVATOR                                   
                                                                         
[Other institutions]                                                     
  V. Asgeirsson          : NEB                                           
  Christoph Bannwarth    : sTDA-DFT, sTD-DFT, PBEh-3c, B97-3c, D3        
  Giovanni Bistoni       : ETS/NOCV, ADLD/ADEX, COVALED                  
  Martin Brehm           : Molecular dynamics                            
  Ronald Cardenas        : ETS/NOCV                                      
  Martina Colucci        : COVALED                                       
  Sebastian Ehlert       : rSCAN, r2SCAN, r2SCAN-3c, D4, dhf basis sets  
  Marvin Friede          : D4 for Fr, Ra, Ac-Lr                          
  Lars Goerigk           : TD-DFT with DH, B97 family of functionals     
  Stefan Grimme          : VdW corrections, initial TS optimization, DFT functionals, gCP, sTDA/sTD-DF 
  Waldemar Hujo          : DFT-NL                                        
  H. Jonsson             : NEB                                           
  Holger Kruse           : gCP                                           
  Marcel Mueller         : wB97X-3c, vDZP basis set                      
  Hagen Neugebauer       : wr2SCAN, Native XTB                           
  Gianluca Regni         : ADLD/ADEX                                     
  Tobias Risthaus        : pre 6.0 range-separated hybrid DFT and stability analysis
  Lukas Wittmann         : regularized MP2, r2SCAN double-hybrids, wr2SCAN        
                                                                         
We gratefully acknowledge several colleagues who have allowed us to      
interface, adapt or use parts of their codes:                            
  Ed Valeev, F. Pavosevic, A. Kumar             : LibInt (2-el integral package), F12 methods 
  Garnet Chan, S. Sharma, J. Yang, R. Olivares  : DMRG                   
  Ulf Ekstrom                                   : XCFun DFT Library      
  Mihaly Kallay                                 : mrcc  (arbitrary order and MRCC methods)
  Frank Weinhold                                : gennbo (NPA and NBO analysis)           
  Simon Mueller                                 : openCOSMO-RS                            
  Christopher J. Cramer and Donald G. Truhlar   : smd solvation model                     
  S Lehtola, MJT Oliveira, MAL Marques          : LibXC Library                           
  Liviu Ungur et al                             : ANISO software                          


 Your calculation uses the libint2 library for the computation of 2-el integrals
 For citations please refer to: http://libint.valeyev.net

 Your ORCA version has been built with support for libXC version: 7.0.0
 For citations please refer to: https://libxc.gitlab.io

 This ORCA versions uses:
   CBLAS   interface :  Fast vector & matrix operations
   LAPACKE interface :  Fast linear algebra routines
   SCALAPACK package :  Parallel linear algebra routines
   Shared memory     :  Shared parallel matrices
   BLAS/LAPACK       :  OpenBLAS 0.3.29  USE64BITINT DYNAMIC_ARCH NO_AFFINITY Bulldozer SINGLE_THREADED
        Core in use  :  Bulldozer
   Copyright (c) 2011-2014, The OpenBLAS Project


  ***********************************
  * Starting time: Fri Aug  8 18:04:58 2025
  * Host name:     chromium10
  * Process ID:    140738
  * Working dir.:  /local/scratch/mehlhorn/61811
  ***********************************



***************************************
The coordinates will be read from file: start.xyz
***************************************


Your calculation utilizes the geometrical counterpoise correction gCP
Please cite in your paper:
H.Kruse, S. Grimme J.Chem.Phys., 136, (2012), 154101 
   

Your calculation utilizes the atom-pairwise dispersion correction
with the Becke-Johnson damping scheme (D3BJ)


Warning: RI is on but no J-basis has been assigned. Assigning Def2/J (nothing to worry about!)
================================================================================

cite the ECPs for Zr [Def2-ECP] as follows:
Ce-Yb(ecp-28): M. Dolg, H. Stoll, H.Preuss, J. Chem. Phys., 1989, 90, 1730-1734.
Y-Cd(ecp-28), Hf-Hg(ecp-46): D. Andrae,U. Haeussermann, M. Dolg, H. Stoll, H. Preuss, Theor. Chim. Acta, 1990, 77, 123-141.
In-Sb(ecp-28), Tl-Bi(ecp-46): B. Metz, H. Stoll, M. Dolg, J. Chem. Phys., 2000, 113, 2563-2569.
Te-Xe(ecp-28), Po-Rn(ecp-46): K. A. Peterson, D. Figgen, E. Goll, H. Stoll, M. Dolg, J. Chem. Phys., 2003, 119, 11113-11123.
Rb(ecp-28), Cs(ecp-46): T. Leininger, A. Nicklass, W. Kuechle, H. Stoll, M. Dolg, A. Bergner, Chem. Phys. Lett., 1996, 255, 274-280.
Sr(ecp-28), Ba(ecp-46): M. Kaupp, P. V. Schleyer, H. Stoll and H. Preuss, J. Chem. Phys., 1991, 94, 1360-1366.
La(ecp-46): M. Dolg, H. Stoll, A. Savin, H. Preuss, Theor. Chim. Acta, 1989, 75, 173-194.
Lu(ecp-28): X. Cao, M. Dolg, J. Chem. Phys., 2001, 115, 7348-7355.

ECP parameters for Zr [Def2-ECP] have been obtained from:
TURBOMOLE (7.0.2)

----- Orbital basis set information -----
Your calculation utilizes the basis: def2-SV(P)
   F. Weigend and R. Ahlrichs, Phys. Chem. Chem. Phys. 7, 3297 (2005).

----- AuxJ basis set information -----
Your calculation utilizes the auxiliary basis: def2/J
   H-Rn: F. Weigend, Phys. Chem. Chem. Phys. 8, 1057 (2006).
   Fr-Lr: K. Eichkorn, F. Weigend, O. Treutler, R. Ahlrichs; Theor. Chem. Acc. 97, 119 (1997).

================================================================================
                                        WARNINGS
                       Please study these warnings very carefully!
================================================================================


WARNING: Gradients are needed
  ===> : At least TightSCF should be used for SCF convergence

WARNING: Geometry Optimization
  ===> : Switching off AutoStart
         For restart on a previous wavefunction, please use MOREAD

================================================================================
                                       INPUT FILE
================================================================================
NAME = run.inp
|  1> # Geometry optimization for (AlH3)n cluster
|  2> 
|  3> %pal nprocs 24  end
|  4> 
|  5> %geom MaxIter 500 end
|  6> 
|  7> 
|  8> ! PBE def2-SV(P)
|  9> ! RKS	# closed shell for AlH3
| 10> ! D3    #  dispersion correction
| 11> ! gCP(DFT/SV(P))
| 12> ! Freq 	# Frequency analysis to check the stabiltity of the structures
| 13> 
| 14> ! NoPop # population analysis not necessary	
| 15> 
| 16> ! DEFGRID2
| 17> ! NormalSCF
| 18> ! SloppyOpt
| 19> 
| 20> ! SmallPrint
| 21> 
| 22> 
| 23> * xyzFile 0 1 start.xyz # only maingroup elements H and Al so there should be no net spin
| 24> 
| 25>                          ****END OF INPUT****
================================================================================

                       *****************************
                       * Geometry Optimization Run *
                       *****************************

Geometry optimization settings:
Update method            Update   .... BFGS
Choice of coordinates    CoordSys .... (2022) Redundant Internals
Initial Hessian          InHess   .... Almloef's Model
Max. no of cycles        MaxIter  .... 500

Convergence Tolerances:
Energy Change            TolE     ....  8.0000e-05 Eh
Max. Gradient            TolMAXG  ....  5.0000e-03 Eh/bohr
RMS Gradient             TolRMSG  ....  1.0000e-03 Eh/bohr
Max. Displacement        TolMAXD  ....  3.0000e-02 bohr
RMS Displacement         TolRMSD  ....  2.0000e-02 bohr
Strict Convergence                .... False

------------------------------------------------------------------------------
                        ORCA OPTIMIZATION COORDINATE SETUP
------------------------------------------------------------------------------

The optimization will be done in redundant internal coordinates (2022)
Making redundant internal coordinates   ...  (2022 redundants) done
Evaluating the initial hessian          ...  (Almloef) done
Evaluating the coordinates              ...  done
Calculating the B-matrix                .... done
Calculating the G-matrix                .... done
The number of degrees of freedom        ....  922

    -----------------------------------------------------------------
                    Redundant Internal Coordinates


    -----------------------------------------------------------------
         Definition                    Initial Value    Approx d2E/dq
    -----------------------------------------------------------------
      1. B(Zr  2,Zr  1)                  3.4256         0.036164   
      2. B(Zr  3,Zr  0)                  3.4283         0.035804   
      3. B(Zr  4,Zr  3)                  3.3516         0.047465   
      4. B(Zr  4,Zr  1)                  3.4257         0.036152   
      5. B(Zr  5,Zr  0)                  3.3462         0.048422   
      6. B(Zr  5,Zr  2)                  3.4121         0.038009   
      7. B(O   6,Zr  0)                  2.1105         0.401313   
      8. B(O   6,Zr  3)                  2.1629         0.331065   
      9. B(O   6,Zr  5)                  2.1914         0.298171   
     10. B(O   7,Zr  4)                  2.1502         0.346861   
     11. B(O   7,Zr  1)                  2.0998         0.417368   
     12. B(O   7,Zr  2)                  2.1195         0.388328   
     13. B(O   8,Zr  2)                  2.0934         0.427268   
     14. B(O   8,Zr  5)                  2.1427         0.356486   
     15. B(O   8,Zr  1)                  2.1108         0.400859   
     16. B(O   9,Zr  4)                  2.1958         0.293391   
     17. B(O   9,Zr  3)                  2.1082         0.404782   
     18. B(O   9,Zr  0)                  2.1617         0.332503   
     19. B(O  10,Zr  4)                  2.1337         0.368542   
     20. B(O  10,Zr  3)                  2.0879         0.436095   
     21. B(O  10,Zr  1)                  2.1201         0.387398   
     22. B(O  11,Zr  2)                  2.1199         0.387671   
     23. B(O  11,Zr  5)                  2.1331         0.369287   
     24. B(O  11,Zr  0)                  2.0845         0.441554   
     25. B(O  12,Zr  0)                  1.9826         0.642063   
     26. B(O  13,Zr  0)                  1.9886         0.628069   
     27. B(O  14,Zr  0)                  2.0693         0.466949   
     28. B(O  15,Zr  0)                  1.9897         0.625459   
     29. B(O  16,Zr  1)                  2.0449         0.510772   
     30. B(O  17,Zr  1)                  2.0485         0.503893   
     31. B(O  18,Zr  1)                  1.9910         0.622450   
     32. B(O  19,Zr  1)                  1.9873         0.631111   
     33. B(O  20,Zr  2)                  1.9932         0.617564   
     34. B(O  21,Zr  2)                  2.0490         0.503107   
     35. B(O  22,Zr  2)                  1.9902         0.624240   
     36. B(O  23,Zr  2)                  2.0386         0.522583   
     37. B(O  24,Zr  3)                  1.9864         0.633016   
     38. B(O  25,Zr  3)                  1.9889         0.627328   
     39. B(O  26,Zr  3)                  2.0710         0.463949   
     40. B(O  27,Zr  3)                  1.9813         0.645093   
     41. B(O  28,Zr  4)                  1.9735         0.663839   
     42. B(O  29,Zr  4)                  2.0480         0.504978   
     43. B(O  30,Zr  4)                  1.9828         0.641612   
     44. B(O  31,Zr  4)                  2.0652         0.473901   
     45. B(O  32,Zr  5)                  2.0390         0.521834   
     46. B(O  33,Zr  5)                  1.9714         0.669098   
     47. B(O  34,Zr  5)                  2.0696         0.466336   
     48. B(O  35,Zr  5)                  1.9859         0.634261   
     49. B(C  36,O  33)                  1.2988         0.782220   
     50. B(C  36,O  12)                  1.2987         0.782534   
     51. B(C  37,O  25)                  1.3017         0.774130   
     52. B(C  37,O  13)                  1.3018         0.773770   
     53. B(C  38,O  21)                  1.2967         0.788431   
     54. B(C  38,O  14)                  1.2964         0.789116   
     55. B(C  39,O  29)                  1.2955         0.791821   
     56. B(C  39,O  15)                  1.2944         0.795189   
     57. B(C  40,O  34)                  1.2999         0.779022   
     58. B(C  40,O  16)                  1.3024         0.772022   
     59. B(C  41,O  17)                  1.2971         0.787233   
     60. B(C  41,O  26)                  1.2967         0.788394   
     61. B(C  42,O  22)                  1.3013         0.775150   
     62. B(C  42,O  18)                  1.3013         0.775072   
     63. B(C  43,O  19)                  1.3005         0.777557   
     64. B(C  43,O  30)                  1.3015         0.774636   
     65. B(C  44,O  35)                  1.3017         0.774093   
     66. B(C  44,O  20)                  1.3008         0.776564   
     67. B(C  45,O  31)                  1.3000         0.779004   
     68. B(C  45,O  23)                  1.3021         0.772958   
     69. B(C  46,O  32)                  1.2956         0.791673   
     70. B(C  46,O  24)                  1.2941         0.796080   
     71. B(C  47,O  28)                  1.2990         0.781830   
     72. B(C  47,O  27)                  1.2988         0.782188   
     73. B(H  48,C  41)                  1.0849         0.366895   
     74. B(H  49,C  42)                  1.0913         0.358431   
     75. B(H  50,C  38)                  1.0848         0.367088   
     76. B(H  51,C  37)                  1.0918         0.357699   
     77. B(H  52,C  43)                  1.0916         0.357991   
     78. B(H  53,C  47)                  1.0902         0.359882   
     79. B(H  54,C  39)                  1.0855         0.366087   
     80. B(H  55,C  45)                  1.0880         0.362691   
     81. B(H  56,C  40)                  1.0880         0.362698   
     82. B(H  57,C  46)                  1.0858         0.365761   
     83. B(H  58,C  36)                  1.0901         0.359907   
     84. B(H  59,C  44)                  1.0916         0.357929   
     85. B(Al 61,Al 60)                  2.7367         0.217904   
     86. B(H  62,C  46)                  3.1624         0.010000   
     87. B(H  62,O  32)                  3.0550         0.010000   
     88. B(H  62,H  57)                  2.5407         0.010000   
     89. B(H  62,Al 61)                  1.6734         0.295977   
     90. B(H  63,Al 61)                  1.6103         0.373230   
     91. B(H  64,C  36)                  3.2199         0.010000   
     92. B(H  64,H  58)                  3.0051         0.010000   
     93. B(H  64,O  33)                  2.5387         0.010000   
     94. B(H  64,Al 61)                  1.6749         0.294347   
     95. B(H  64,Al 60)                  1.6729         0.296471   
     96. B(H  65,Al 60)                  1.6112         0.371885   
     97. B(H  66,C  40)                  3.2923         0.010000   
     98. B(H  66,H  56)                  3.1448         0.010000   
     99. B(H  66,O  34)                  2.6454         0.010000   
    100. B(H  66,Al 60)                  1.6744         0.294902   
    101. B(H  67,H  57)                  3.0148         0.010000   
    102. B(H  67,C  36)                  3.0095         0.010000   
    103. B(H  67,C  46)                  2.9989         0.010000   
    104. B(H  67,H  58)                  2.9702         0.010000   
    105. B(H  67,O  32)                  2.8734         0.010000   
    106. B(H  67,O  33)                  2.7674         0.010000   
    107. B(H  67,Al 61)                  1.6099         0.373647   
    108. B(Al 68,H  66)                  1.6756         0.293546   
    109. B(Al 68,H  62)                  1.6721         0.297415   
    110. B(Al 68,Al 61)                  2.7378         0.217082   
    111. B(Al 68,Al 60)                  2.7247         0.227780   
    112. B(H  69,C  46)                  3.1644         0.010000   
    113. B(H  69,O  34)                  3.1550         0.010000   
    114. B(H  69,O  32)                  2.9155         0.010000   
    115. B(H  69,C  40)                  2.9081         0.010000   
    116. B(H  69,H  57)                  2.7082         0.010000   
    117. B(H  69,H  56)                  2.6775         0.010000   
    118. B(H  69,Al 68)                  1.6088         0.375180   
    119. B(H  70,Al 68)                  1.6109         0.372333   
    120. B(H  71,C  44)                  3.2346         0.010000   
    121. B(H  71,O  34)                  3.1999         0.010000   
    122. B(H  71,H  59)                  3.1182         0.010000   
    123. B(H  71,O  33)                  3.0779         0.010000   
    124. B(H  71,O  35)                  2.5340         0.010000   
    125. B(H  71,Al 60)                  1.6090         0.374941   
    126. A(O  11,Zr  0,O  15)          103.0200         0.511114   
    127. A(O   9,Zr  0,O  12)          142.7406         0.487220   
    128. A(O  11,Zr  0,O  12)          105.5227         0.513625   
    129. A(O   6,Zr  0,O  15)          143.6820         0.502083   
    130. A(Zr  3,Zr  0,O  13)           71.6153         0.356872   
    131. A(O   9,Zr  0,O  15)           74.4925         0.484866   
    132. A(O   9,Zr  0,O  13)           78.2328         0.485239   
    133. A(O   9,Zr  0,O  14)          134.9280         0.459526   
    134. A(Zr  5,Zr  0,O  12)           75.2647         0.377249   
    135. A(O   6,Zr  0,O  11)           68.1959         0.470778   
    136. A(Zr  3,Zr  0,O  12)          107.4564         0.358211   
    137. A(Zr  5,Zr  0,O   9)           93.0772         0.337362   
    138. A(Zr  3,Zr  0,O   6)           37.1799         0.331047   
    139. A(Zr  5,Zr  0,O  14)           87.7583         0.357203   
    140. A(O  11,Zr  0,O  13)          156.1495         0.511512   
    141. A(O   6,Zr  0,O  13)           91.5370         0.502472   
    142. A(O  14,Zr  0,O  15)           76.8948         0.516491   
    143. A(Zr  3,Zr  0,O  14)          155.1917         0.339489   
    144. A(Zr  5,Zr  0,O  15)          140.9371         0.375545   
    145. A(O  12,Zr  0,O  13)           81.9689         0.548876   
    146. A(O   9,Zr  0,O  11)           82.7501         0.454866   
    147. A(O  12,Zr  0,O  14)           80.7455         0.519034   
    148. A(Zr  5,Zr  0,O   6)           39.8154         0.348163   
    149. A(O  12,Zr  0,O  15)          135.0847         0.548443   
    150. A(Zr  5,Zr  0,O  11)           38.0079         0.353830   
    151. A(O  13,Zr  0,O  14)          133.1865         0.516894   
    152. A(Zr  5,Zr  0,O  13)          128.6440         0.375815   
    153. A(O   6,Zr  0,O  14)          127.2146         0.475641   
    154. A(O  11,Zr  0,O  14)           70.6637         0.484095   
    155. A(Zr  3,Zr  0,Zr  5)           72.4246         0.256902   
    156. A(O  13,Zr  0,O  15)           85.6928         0.546157   
    157. A(O   6,Zr  0,O   9)           69.5096         0.447038   
    158. A(O   6,Zr  0,O  12)           79.8862         0.504540   
    159. A(Zr  3,Zr  0,O  11)           84.5377         0.336339   
    160. A(Zr  3,Zr  0,O   9)           36.0603         0.320959   
    161. A(Zr  3,Zr  0,O  15)          109.1482         0.356620   
    162. A(O  17,Zr  1,O  18)          133.4851         0.523448   
    163. A(O  10,Zr  1,O  18)          154.6366         0.498349   
    164. A(O  18,Zr  1,O  19)           82.5360         0.546158   
    165. A(Zr  2,Zr  1,O  19)          108.6336         0.357773   
    166. A(Zr  4,Zr  1,O  19)           74.0806         0.357752   
    167. A(O   7,Zr  1,O  16)          140.7752         0.487090   
    168. A(Zr  2,Zr  1,O  16)          106.0808         0.345206   
    169. A(O   7,Zr  1,O   8)           68.4957         0.465845   
    170. A(O  10,Zr  1,O  17)           71.3001         0.479233   
    171. A(O   8,Zr  1,O  10)           85.8421         0.459543   
    172. A(O  10,Zr  1,O  16)          110.5324         0.480432   
    173. A(O   7,Zr  1,O  17)          129.0720         0.485870   
    174. A(O   7,Zr  1,O  19)           80.2971         0.506616   
    175. A(Zr  2,Zr  1,O  18)           72.3208         0.356933   
    176. A(O   7,Zr  1,O  10)           66.1871         0.462943   
    177. A(Zr  4,Zr  1,O  10)           36.4927         0.329646   
    178. A(O  10,Zr  1,O  19)           99.5605         0.499632   
    179. A(Zr  4,Zr  1,O  17)           92.4942         0.344401   
    180. A(O  17,Zr  1,O  19)           80.4108         0.524809   
    181. A(Zr  4,Zr  1,O   8)           90.9342         0.331514   
    182. A(O  16,Zr  1,O  17)           79.9389         0.504432   
    183. A(O  16,Zr  1,O  18)           83.2350         0.524783   
    184. A(Zr  2,Zr  1,O   7)           35.9104         0.333759   
    185. A(Zr  2,Zr  1,O  17)          154.1634         0.344421   
    186. A(O   8,Zr  1,O  18)           78.0744         0.501526   
    187. A(O   8,Zr  1,O  16)           72.2890         0.483470   
    188. A(O  16,Zr  1,O  19)          136.1031         0.526148   
    189. A(O   8,Zr  1,O  17)          134.8413         0.482262   
    190. A(Zr  4,Zr  1,O  16)          145.4519         0.345186   
    191. A(Zr  4,Zr  1,O   7)           36.7901         0.333740   
    192. A(Zr  2,Zr  1,O   8)           35.2644         0.331533   
    193. A(Zr  4,Zr  1,O  18)          123.5066         0.356913   
    194. A(O   8,Zr  1,O  19)          143.0574         0.502819   
    195. A(O   7,Zr  1,O  18)           89.5336         0.505312   
    196. A(Zr  2,Zr  1,O  10)           83.2005         0.329665   
    197. A(Zr  2,Zr  1,Zr  4)           68.0727         0.246511   
    198. A(Zr  5,Zr  2,O   7)           91.1986         0.332523   
    199. A(Zr  1,Zr  2,Zr  5)           68.0002         0.248308   
    200. A(Zr  5,Zr  2,O   8)           36.8389         0.337848   
    201. A(O  11,Zr  2,O  21)           71.3310         0.479157   
    202. A(O   8,Zr  2,O  21)          128.5948         0.487841   
    203. A(O  11,Zr  2,O  22)          154.9988         0.498681   
    204. A(O   7,Zr  2,O  23)           72.4790         0.482677   
    205. A(Zr  1,Zr  2,O  23)          106.7460         0.346535   
    206. A(O  21,Zr  2,O  23)           79.9583         0.506440   
    207. A(O  20,Zr  2,O  23)          136.5690         0.526263   
    208. A(Zr  5,Zr  2,O  22)          123.9923         0.360144   
    209. A(O   7,Zr  2,O   8)           68.4512         0.465136   
    210. A(Zr  1,Zr  2,O   8)           35.6012         0.335061   
    211. A(Zr  1,Zr  2,O  20)          107.7906         0.356456   
    212. A(Zr  1,Zr  2,O   7)           35.5270         0.329796   
    213. A(O  11,Zr  2,O  23)          109.3389         0.482526   
    214. A(Zr  1,Zr  2,O  22)           72.5120         0.357108   
    215. A(O  22,Zr  2,O  23)           83.7306         0.527329   
    216. A(Zr  1,Zr  2,O  21)          154.3280         0.344331   
    217. A(O   8,Zr  2,O  23)          140.8746         0.491284   
    218. A(Zr  5,Zr  2,O  23)          144.7481         0.349452   
    219. A(Zr  5,Zr  2,O  20)           74.0098         0.359485   
    220. A(O  21,Zr  2,O  22)          133.1587         0.523577   
    221. A(O  20,Zr  2,O  22)           82.3248         0.544214   
    222. A(O   7,Zr  2,O  22)           77.7634         0.498838   
    223. A(Zr  5,Zr  2,O  21)           91.9994         0.347223   
    224. A(O   8,Zr  2,O  11)           66.2571         0.464992   
    225. A(O   7,Zr  2,O  11)           85.8457         0.456947   
    226. A(O   8,Zr  2,O  22)           90.0070         0.507799   
    227. A(Zr  5,Zr  2,O  11)           36.7859         0.332430   
    228. A(O   7,Zr  2,O  21)          135.7628         0.479307   
    229. A(Zr  1,Zr  2,O  11)           83.1552         0.329704   
    230. A(O  11,Zr  2,O  20)          100.1992         0.497685   
    231. A(O   8,Zr  2,O  20)           80.0306         0.506781   
    232. A(O   7,Zr  2,O  20)          142.3543         0.497842   
    233. A(O  20,Zr  2,O  21)           80.2435         0.522520   
    234. A(Zr  0,Zr  3,O  26)          155.3733         0.339124   
    235. A(O   6,Zr  3,O  25)           77.6876         0.484745   
    236. A(O  25,Zr  3,O  26)          132.7557         0.516156   
    237. A(Zr  4,Zr  3,O   6)           93.5396         0.335999   
    238. A(Zr  4,Zr  3,O  10)           37.9251         0.351894   
    239. A(O   9,Zr  3,O  26)          126.9021         0.475830   
    240. A(O   6,Zr  3,O  10)           83.4215         0.453480   
    241. A(O  24,Zr  3,O  26)           76.5128         0.517030   
    242. A(O   6,Zr  3,O  27)          142.1037         0.487254   
    243. A(Zr  0,Zr  3,O  24)          109.7268         0.357348   
    244. A(Zr  0,Zr  3,Zr  4)           72.5903         0.256144   
    245. A(Zr  0,Zr  3,O  10)           84.8298         0.335643   
    246. A(O  25,Zr  3,O  27)           81.9629         0.549243   
    247. A(Zr  0,Zr  3,O  27)          106.9069         0.358498   
    248. A(O   6,Zr  3,O  26)          135.5900         0.458624   
    249. A(Zr  4,Zr  3,O  26)           87.4499         0.355604   
    250. A(O   6,Zr  3,O   9)           69.5296         0.447385   
    251. A(O  10,Zr  3,O  26)           70.5446         0.482409   
    252. A(O   9,Zr  3,O  25)           92.3927         0.503168   
    253. A(Zr  4,Zr  3,O   9)           39.8048         0.347498   
    254. A(O  24,Zr  3,O  27)          135.2195         0.550184   
    255. A(O   9,Zr  3,O  10)           68.0395         0.470447   
    256. A(O   9,Zr  3,O  24)          143.7982         0.504015   
    257. A(O  26,Zr  3,O  27)           80.8816         0.518865   
    258. A(O   6,Zr  3,O  24)           74.7856         0.485554   
    259. A(Zr  4,Zr  3,O  24)          140.2839         0.375029   
    260. A(O  10,Zr  3,O  27)          105.6942         0.512883   
    261. A(O  10,Zr  3,O  25)          156.6976         0.510212   
    262. A(Zr  0,Zr  3,O   6)           36.1346         0.320731   
    263. A(O   9,Zr  3,O  27)           79.8458         0.505794   
    264. A(Zr  0,Zr  3,O   9)           37.1272         0.331519   
    265. A(O  10,Zr  3,O  24)          102.4225         0.511073   
    266. A(Zr  4,Zr  3,O  25)          129.4638         0.374445   
    267. A(Zr  4,Zr  3,O  27)           75.3560         0.376255   
    268. A(O  24,Zr  3,O  25)           85.7564         0.547279   
    269. A(Zr  0,Zr  3,O  25)           71.8685         0.356800   
    270. A(O   9,Zr  4,O  10)           65.6558         0.430393   
    271. A(O   7,Zr  4,O  10)           65.0763         0.443578   
    272. A(O  10,Zr  4,O  31)          132.5250         0.469529   
    273. A(Zr  1,Zr  4,O  31)           97.0195         0.340878   
    274. A(Zr  1,Zr  4,Zr  3)           73.1774         0.256510   
    275. A(O   9,Zr  4,O  31)          135.8840         0.450386   
    276. A(Zr  3,Zr  4,O  31)          164.9755         0.356888   
    277. A(O  29,Zr  4,O  30)          141.8497         0.526653   
    278. A(O  10,Zr  4,O  30)           84.4681         0.496539   
    279. A(O   9,Zr  4,O  30)          139.7826         0.476038   
    280. A(O   7,Zr  4,O  30)           89.0257         0.490985   
    281. A(Zr  1,Zr  4,O  28)          131.2767         0.360845   
    282. A(Zr  1,Zr  4,O  30)           69.8577         0.358757   
    283. A(O  28,Zr  4,O  30)           82.6648         0.554603   
    284. A(Zr  3,Zr  4,O  29)          107.1556         0.360767   
    285. A(O   7,Zr  4,O   9)          100.9721         0.425740   
    286. A(Zr  3,Zr  4,O  28)           74.6966         0.378124   
    287. A(Zr  3,Zr  4,O   9)           37.9252         0.329337   
    288. A(O   7,Zr  4,O  31)           68.8033         0.464342   
    289. A(Zr  1,Zr  4,O   9)           96.1008         0.314974   
    290. A(Zr  3,Zr  4,O   7)           97.5625         0.338619   
    291. A(Zr  1,Zr  4,O   7)           35.7928         0.323701   
    292. A(O   9,Zr  4,O  29)           70.5272         0.455618   
    293. A(O   9,Zr  4,O  28)           79.4782         0.479033   
    294. A(O  28,Zr  4,O  31)          119.8686         0.523744   
    295. A(Zr  1,Zr  4,O  10)           36.2233         0.326944   
    296. A(O  29,Zr  4,O  31)           73.3088         0.497646   
    297. A(O  30,Zr  4,O  31)           84.1098         0.520406   
    298. A(Zr  3,Zr  4,O  10)           36.9726         0.342068   
    299. A(Zr  1,Zr  4,O  29)          141.9262         0.344526   
    300. A(O   7,Zr  4,O  29)          109.9227         0.469777   
    301. A(O  28,Zr  4,O  29)           82.5725         0.530039   
    302. A(Zr  3,Zr  4,O  30)          102.4945         0.375904   
    303. A(O  10,Zr  4,O  29)          133.3139         0.475039   
    304. A(O  10,Zr  4,O  28)          104.0316         0.499693   
    305. A(O   7,Zr  4,O  28)          167.0226         0.494096   
    306. A(Zr  2,Zr  5,O  32)          141.2236         0.349368   
    307. A(Zr  0,Zr  5,O  32)          107.8680         0.364035   
    308. A(O  33,Zr  5,O  35)           82.2951         0.554221   
    309. A(O  34,Zr  5,O  35)           83.3378         0.517718   
    310. A(O  32,Zr  5,O  35)          141.8585         0.528769   
    311. A(Zr  2,Zr  5,O  35)           69.8919         0.361123   
    312. A(O  32,Zr  5,O  34)           73.3750         0.499197   
    313. A(O   6,Zr  5,O  34)          137.0907         0.450391   
    314. A(Zr  0,Zr  5,O  34)          165.6436         0.357123   
    315. A(Zr  0,Zr  5,Zr  2)           73.5041         0.259188   
    316. A(Zr  0,Zr  5,O  33)           74.9317         0.379953   
    317. A(O   6,Zr  5,O  33)           79.2567         0.481161   
    318. A(Zr  2,Zr  5,O   6)           96.7691         0.318388   
    319. A(O  11,Zr  5,O  32)          133.3699         0.478096   
    320. A(O   6,Zr  5,O  32)           70.8684         0.459706   
    321. A(O   8,Zr  5,O  33)          167.5245         0.497342   
    322. A(O  11,Zr  5,O  33)          104.4464         0.500615   
    323. A(Zr  2,Zr  5,O  33)          131.7144         0.364437   
    324. A(O  32,Zr  5,O  33)           83.3033         0.534123   
    325. A(Zr  2,Zr  5,O  34)           96.4241         0.342825   
    326. A(Zr  0,Zr  5,O   6)           38.0746         0.331310   
    327. A(O   8,Zr  5,O  34)           68.8221         0.465302   
    328. A(O  33,Zr  5,O  34)          119.2029         0.522938   
    329. A(O   6,Zr  5,O  35)          139.4254         0.476444   
    330. A(Zr  0,Zr  5,O  35)          102.1279         0.376453   
    331. A(O   8,Zr  5,O  35)           89.5726         0.492430   
    332. A(O  11,Zr  5,O  35)           84.5183         0.495664   
    333. A(O   8,Zr  5,O  11)           65.1699         0.445944   
    334. A(O   6,Zr  5,O  11)           65.8751         0.431801   
    335. A(O   8,Zr  5,O  32)          108.7683         0.475001   
    336. A(Zr  2,Zr  5,O  11)           36.5207         0.329768   
    337. A(Zr  0,Zr  5,O  11)           36.9936         0.343331   
    338. A(O  11,Zr  5,O  34)          132.3339         0.468318   
    339. A(O   6,Zr  5,O   8)          101.3412         0.429074   
    340. A(Zr  2,Zr  5,O   8)           35.8575         0.327853   
    341. A(Zr  0,Zr  5,O   8)           97.7287         0.341308   
    342. A(Zr  3,O   6,Zr  5)          133.6419         0.423427   
    343. A(Zr  0,O   6,Zr  5)          102.1101         0.438314   
    344. A(Zr  0,O   6,Zr  3)          106.6856         0.446687   
    345. A(Zr  2,O   7,Zr  4)          127.8325         0.447799   
    346. A(Zr  1,O   7,Zr  4)          107.4171         0.453704   
    347. A(Zr  1,O   7,Zr  2)          108.5626         0.463146   
    348. A(Zr  1,O   8,Zr  2)          109.1344         0.467850   
    349. A(Zr  2,O   8,Zr  5)          107.3036         0.457923   
    350. A(Zr  1,O   8,Zr  5)          128.0322         0.452634   
    351. A(Zr  3,O   9,Zr  4)          102.2700         0.437718   
    352. A(Zr  0,O   9,Zr  3)          106.8124         0.447736   
    353. A(Zr  0,O   9,Zr  4)          134.1848         0.422533   
    354. A(Zr  3,O  10,Zr  4)          105.1023         0.462435   
    355. A(Zr  1,O  10,Zr  3)          147.5279         0.466676   
    356. A(Zr  1,O  10,Zr  4)          107.2840         0.452560   
    357. A(Zr  2,O  11,Zr  5)          106.6934         0.452784   
    358. A(Zr  0,O  11,Zr  5)          104.9984         0.463659   
    359. A(Zr  0,O  11,Zr  2)          148.2600         0.467802   
    360. A(Zr  0,O  12,C  36)          130.6547         0.506495   
    361. A(Zr  0,O  13,C  37)          127.6730         0.503360   
    362. A(Zr  0,O  14,C  38)          136.4102         0.478198   
    363. A(Zr  0,O  15,C  39)          137.4580         0.505536   
    364. A(Zr  1,O  16,C  40)          135.7575         0.484217   
    365. A(Zr  1,O  17,C  41)          140.5939         0.484749   
    366. A(Zr  1,O  18,C  42)          128.4764         0.502676   
    367. A(Zr  1,O  19,C  43)          126.0085         0.504272   
    368. A(Zr  2,O  20,C  44)          125.5232         0.502118   
    369. A(Zr  2,O  21,C  38)          140.4575         0.484746   
    370. A(Zr  2,O  22,C  42)          128.2947         0.502954   
    371. A(Zr  2,O  23,C  45)          136.2894         0.486376   
    372. A(Zr  3,O  24,C  46)          137.2844         0.506776   
    373. A(Zr  3,O  25,C  37)          127.4871         0.503293   
    374. A(Zr  3,O  26,C  41)          135.4468         0.477550   
    375. A(Zr  3,O  27,C  47)          130.5415         0.506898   
    376. A(Zr  4,O  28,C  47)          131.8686         0.509573   
    377. A(Zr  4,O  29,C  39)          142.3413         0.485463   
    378. A(Zr  4,O  30,C  43)          130.2944         0.505471   
    379. A(Zr  4,O  31,C  45)          126.2811         0.478364   
    380. A(H  62,O  32,H  69)           48.6839         0.097024   
    381. A(H  62,O  32,H  67)           49.0435         0.097310   
    382. A(C  46,O  32,H  62)           82.6645         0.141048   
    383. A(Zr  5,O  32,H  62)          131.4123         0.143832   
    384. A(H  67,O  32,H  69)           97.7156         0.098332   
    385. A(C  46,O  32,H  69)           88.7468         0.147448   
    386. A(Zr  5,O  32,H  69)          124.1875         0.150574   
    387. A(C  46,O  32,H  67)           82.7346         0.149529   
    388. A(Zr  5,O  32,H  67)          107.0363         0.152767   
    389. A(Zr  5,O  32,C  46)          142.4931         0.488404   
    390. A(Zr  5,O  33,C  36)          131.6635         0.510372   
    391. A(H  67,O  33,H  71)          104.1505         0.097904   
    392. A(H  64,O  33,H  71)           52.0138         0.099770   
    393. A(C  36,O  33,H  71)          135.3958         0.139928   
    394. A(Zr  5,O  33,H  71)           83.2011         0.145912   
    395. A(H  64,O  33,H  67)           55.9579         0.102941   
    396. A(C  36,O  33,H  67)           87.7009         0.154925   
    397. A(Zr  5,O  33,H  67)          113.2222         0.162672   
    398. A(C  36,O  33,H  64)          109.8200         0.168738   
    399. A(Zr  5,O  33,H  64)          118.0620         0.178107   
    400. A(Zr  5,O  34,C  40)          126.0515         0.476950   
    401. A(H  69,O  34,H  71)           97.7730         0.094829   
    402. A(H  66,O  34,H  71)           49.7070         0.097904   
    403. A(C  40,O  34,H  71)          154.0780         0.134971   
    404. A(Zr  5,O  34,H  71)           78.6800         0.136386   
    405. A(H  66,O  34,H  69)           50.2031         0.098243   
    406. A(C  40,O  34,H  69)           67.1367         0.136719   
    407. A(Zr  5,O  34,H  69)          112.9916         0.138188   
    408. A(C  40,O  34,H  66)          108.2260         0.161900   
    409. A(Zr  5,O  34,H  66)          109.3007         0.164144   
    410. A(C  44,O  35,H  71)          110.8451         0.168862   
    411. A(Zr  5,O  35,H  71)           98.9060         0.177381   
    412. A(Zr  5,O  35,C  44)          129.3817         0.504321   
    413. A(H  58,C  36,H  64)           68.9143         0.123342   
    414. A(O  12,C  36,H  64)          171.4497         0.135949   
    415. A(O  12,C  36,O  33)          127.4767         0.466100   
    416. A(H  58,C  36,H  67)           77.4676         0.129907   
    417. A(O  33,C  36,H  67)           66.7538         0.144918   
    418. A(O  12,C  36,H  67)          125.8094         0.144923   
    419. A(H  64,C  36,H  67)           47.1222         0.095962   
    420. A(O  33,C  36,H  64)           47.8785         0.135945   
    421. A(O  33,C  36,H  58)          116.2654         0.364841   
    422. A(O  12,C  36,H  58)          116.2578         0.364866   
    423. A(O  13,C  37,O  25)          127.1661         0.464256   
    424. A(O  25,C  37,H  51)          116.4130         0.363810   
    425. A(O  13,C  37,H  51)          116.4209         0.363781   
    426. A(O  14,C  38,O  21)          130.0557         0.467493   
    427. A(O  21,C  38,H  50)          114.9621         0.366574   
    428. A(O  14,C  38,H  50)          114.9765         0.366628   
    429. A(O  15,C  39,O  29)          129.0583         0.468518   
    430. A(O  29,C  39,H  54)          115.4757         0.366672   
    431. A(O  15,C  39,H  54)          115.4629         0.366939   
    432. A(O  16,C  40,O  34)          129.6887         0.464599   
    433. A(H  66,C  40,H  69)           47.1270         0.096132   
    434. A(H  56,C  40,H  66)           72.6785         0.121394   
    435. A(O  16,C  40,H  66)          153.5571         0.133073   
    436. A(O  34,C  40,H  66)           49.7472         0.133163   
    437. A(H  56,C  40,H  69)           67.0061         0.133585   
    438. A(O  34,C  40,H  69)           88.5397         0.149783   
    439. A(O  16,C  40,H  69)          110.5240         0.149659   
    440. A(O  34,C  40,H  56)          115.1067         0.365068   
    441. A(O  16,C  40,H  56)          115.2025         0.364504   
    442. A(O  17,C  41,O  26)          130.0369         0.467284   
    443. A(O  26,C  41,H  48)          115.0000         0.366538   
    444. A(O  17,C  41,H  48)          114.9560         0.366445   
    445. A(O  18,C  42,O  22)          127.6780         0.464511   
    446. A(O  22,C  42,H  49)          116.1660         0.364019   
    447. A(O  18,C  42,H  49)          116.1560         0.364013   
    448. A(O  30,C  43,H  52)          116.5481         0.363901   
    449. A(O  19,C  43,H  52)          116.4846         0.364135   
    450. A(O  19,C  43,O  30)          126.9627         0.464726   
    451. A(H  59,C  44,H  71)           74.1299         0.122883   
    452. A(O  35,C  44,H  71)           47.0638         0.135265   
    453. A(O  20,C  44,H  71)          158.4079         0.135298   
    454. A(O  35,C  44,H  59)          116.5825         0.363847   
    455. A(O  20,C  44,H  59)          116.5795         0.364045   
    456. A(O  20,C  44,O  35)          126.8332         0.464558   
    457. A(O  31,C  45,H  55)          115.1127         0.365065   
    458. A(O  23,C  45,H  55)          115.2457         0.364579   
    459. A(O  23,C  45,O  31)          129.6373         0.464700   
    460. A(H  62,C  46,H  69)           45.8451         0.095421   
    461. A(H  67,C  46,H  69)           89.9979         0.096355   
    462. A(H  57,C  46,H  69)           55.8447         0.125096   
    463. A(O  32,C  46,H  69)           67.0910         0.138296   
    464. A(H  62,C  46,H  67)           47.0950         0.096368   
    465. A(H  57,C  46,H  62)           46.5318         0.125157   
    466. A(O  32,C  46,H  62)           73.3612         0.138379   
    467. A(O  24,C  46,H  62)          151.9450         0.138441   
    468. A(H  57,C  46,H  67)           80.4250         0.130421   
    469. A(O  32,C  46,H  67)           71.8903         0.145568   
    470. A(O  24,C  46,H  67)          117.5533         0.145639   
    471. A(O  24,C  46,H  69)          150.4745         0.138358   
    472. A(O  32,C  46,H  57)          115.6360         0.366604   
    473. A(O  24,C  46,H  57)          115.3160         0.366953   
    474. A(O  24,C  46,O  32)          129.0453         0.468598   
    475. A(O  28,C  47,H  53)          116.2371         0.364806   
    476. A(O  27,C  47,H  53)          116.2492         0.364834   
    477. A(O  27,C  47,O  28)          127.5136         0.466020   
    478. A(H  66,H  56,H  69)           50.1506         0.091955   
    479. A(C  40,H  56,H  66)           88.0350         0.109141   
    480. A(C  40,H  56,H  69)           91.0262         0.118706   
    481. A(H  67,H  57,H  69)           99.1003         0.092209   
    482. A(H  62,H  57,H  67)           51.8514         0.092688   
    483. A(C  46,H  57,H  67)           78.7740         0.111483   
    484. A(H  62,H  57,H  69)           55.8896         0.093759   
    485. A(C  46,H  57,H  69)          104.7795         0.118012   
    486. A(C  46,H  57,H  62)          115.4002         0.122347   
    487. A(H  64,H  58,H  67)           49.4099         0.091602   
    488. A(C  36,H  58,H  64)           91.3016         0.111583   
    489. A(C  36,H  58,H  67)           81.5374         0.112248   
    490. A(C  44,H  59,H  71)           86.1915         0.109530   
    491. A(Al 68,Al 60,H  71)          131.2038         0.401466   
    492. A(H  66,Al 60,H  71)           99.5774         0.360579   
    493. A(H  65,Al 60,H  71)          121.5129         0.375217   
    494. A(H  64,Al 60,H  71)           99.7564         0.360906   
    495. A(Al 61,Al 60,H  71)          128.6951         0.398347   
    496. A(H  66,Al 60,Al 68)           35.5922         0.384937   
    497. A(H  65,Al 60,Al 68)           97.9207         0.400887   
    498. A(H  64,Al 60,Al 68)           93.8796         0.385292   
    499. A(Al 61,Al 60,Al 68)           60.1707         0.426091   
    500. A(H  65,Al 60,H  66)          109.6589         0.360077   
    501. A(H  64,Al 60,H  66)          119.5862         0.346522   
    502. A(Al 61,Al 60,H  66)           91.7817         0.381983   
    503. A(H  64,Al 60,H  65)          107.2440         0.360402   
    504. A(Al 61,Al 60,H  65)          100.3871         0.397774   
    505. A(Al 61,Al 60,H  64)           35.1911         0.382335   
    506. A(H  67,Al 61,Al 68)          118.6788         0.397841   
    507. A(H  64,Al 61,Al 68)           93.3677         0.381607   
    508. A(H  63,Al 61,Al 68)          105.4649         0.397763   
    509. A(H  62,Al 61,Al 68)           35.0634         0.381973   
    510. A(Al 60,Al 61,Al 68)           59.6962         0.422441   
    511. A(H  64,Al 61,H  67)           98.9662         0.360251   
    512. A(H  63,Al 61,H  67)          127.9338         0.375227   
    513. A(H  62,Al 61,H  67)           97.3496         0.360590   
    514. A(Al 60,Al 61,H  67)          122.2764         0.398105   
    515. A(H  63,Al 61,H  64)          104.8539         0.360183   
    516. A(H  62,Al 61,H  64)          126.0455         0.346315   
    517. A(Al 60,Al 61,H  64)           35.1440         0.381858   
    518. A(H  62,Al 61,H  63)          104.4006         0.360522   
    519. A(Al 60,Al 61,H  63)          102.7056         0.398027   
    520. A(Al 60,Al 61,H  62)           94.4053         0.382224   
    521. A(O  32,H  62,C  46)           23.9743         0.095779   
    522. A(C  46,H  62,H  57)           18.0680         0.094932   
    523. A(C  46,H  62,Al 68)          100.4467         0.129751   
    524. A(C  46,H  62,Al 61)           98.8630         0.129706   
    525. A(O  32,H  62,H  57)           41.0128         0.095252   
    526. A(O  32,H  62,Al 68)           84.9953         0.131953   
    527. A(O  32,H  62,Al 61)           87.0821         0.131906   
    528. A(H  57,H  62,Al 68)          104.2980         0.126584   
    529. A(H  57,H  62,Al 61)          113.1556         0.126542   
    530. A(Al 61,H  62,Al 68)          109.8414         0.346920   
    531. A(C  36,H  64,H  58)           19.7841         0.092843   
    532. A(O  33,H  64,C  36)           22.3015         0.098927   
    533. A(C  36,H  64,Al 61)          101.5581         0.127756   
    534. A(C  36,H  64,Al 60)          126.7109         0.127819   
    535. A(O  33,H  64,H  58)           41.9548         0.095528   
    536. A(H  58,H  64,Al 61)          101.5348         0.114485   
    537. A(H  58,H  64,Al 60)          141.0583         0.114527   
    538. A(O  33,H  64,Al 61)          103.2892         0.154829   
    539. A(O  33,H  64,Al 60)          106.6236         0.154936   
    540. A(Al 60,H  64,Al 61)          109.6649         0.346412   
    541. A(C  40,H  66,H  56)           19.2865         0.092222   
    542. A(C  40,H  66,Al 68)           97.0600         0.125471   
    543. A(C  40,H  66,Al 60)          131.6324         0.125509   
    544. A(O  34,H  66,C  40)           22.0268         0.097554   
    545. A(O  34,H  66,H  56)           39.6339         0.094319   
    546. A(H  56,H  66,Al 68)           93.9894         0.111676   
    547. A(H  56,H  66,Al 60)          148.3151         0.111700   
    548. A(O  34,H  66,Al 68)          110.7797         0.149203   
    549. A(O  34,H  66,Al 60)          109.7423         0.149266   
    550. A(Al 60,H  66,Al 68)          108.8464         0.345945   
    551. A(C  36,H  67,H  57)          112.6884         0.093541   
    552. A(C  46,H  67,H  57)           20.8010         0.093581   
    553. A(H  57,H  67,H  58)          133.6776         0.091581   
    554. A(O  32,H  67,H  57)           40.0057         0.093902   
    555. A(O  33,H  67,H  57)           96.1394         0.094354   
    556. A(H  57,H  67,Al 61)           95.4272         0.115683   
    557. A(C  36,H  67,C  46)           92.1047         0.097366   
    558. A(C  36,H  67,H  58)           20.9950         0.093713   
    559. A(O  32,H  67,C  36)           76.2733         0.097952   
    560. A(O  33,H  67,C  36)           25.5453         0.098777   
    561. A(C  36,H  67,Al 61)          112.3502         0.137725   
    562. A(C  46,H  67,H  58)          113.0879         0.093755   
    563. A(O  32,H  67,C  46)           25.3751         0.098031   
    564. A(O  33,H  67,C  46)           77.9293         0.098863   
    565. A(C  46,H  67,Al 61)          107.1424         0.138158   
    566. A(O  32,H  67,H  58)           96.2714         0.094088   
    567. A(O  33,H  67,H  58)           41.2913         0.094556   
    568. A(H  58,H  67,Al 61)          104.7497         0.116692   
    569. A(O  32,H  67,O  33)           56.3664         0.099554   
    570. A(O  32,H  67,Al 61)           94.7372         0.141600   
    571. A(O  33,H  67,Al 61)           96.1471         0.146445   
    572. A(H  69,Al 68,H  70)          124.6864         0.375337   
    573. A(H  66,Al 68,H  70)          108.3044         0.359868   
    574. A(H  62,Al 68,H  70)          105.7713         0.360672   
    575. A(Al 61,Al 68,H  70)          104.6260         0.397594   
    576. A(Al 60,Al 68,H  70)           99.1836         0.400972   
    577. A(H  66,Al 68,H  69)           99.3054         0.360335   
    578. A(H  62,Al 68,H  69)           97.3484         0.361141   
    579. A(Al 61,Al 68,H  69)          121.7317         0.398127   
    580. A(Al 60,Al 68,H  69)          128.4111         0.401511   
    581. A(H  62,Al 68,H  66)          122.7088         0.346439   
    582. A(Al 61,Al 68,H  66)           91.7182         0.381427   
    583. A(Al 60,Al 68,H  66)           35.5615         0.384628   
    584. A(Al 61,Al 68,H  62)           35.0952         0.382295   
    585. A(Al 60,Al 68,H  62)           94.8719         0.385506   
    586. A(Al 60,Al 68,Al 61)           60.1332         0.425803   
    587. A(O  34,H  69,C  46)           69.1373         0.095227   
    588. A(O  32,H  69,C  46)           24.1621         0.096600   
    589. A(C  40,H  69,C  46)           74.3794         0.096932   
    590. A(C  46,H  69,H  57)           19.3758         0.094152   
    591. A(C  46,H  69,H  56)           95.8977         0.094285   
    592. A(C  46,H  69,Al 68)          101.9728         0.131878   
    593. A(O  32,H  69,O  34)           47.5029         0.096384   
    594. A(O  34,H  69,C  40)           24.3237         0.096707   
    595. A(O  34,H  69,H  57)           88.3502         0.094005   
    596. A(O  34,H  69,H  56)           39.4334         0.094135   
    597. A(O  34,H  69,Al 68)           92.3055         0.130658   
    598. A(O  32,H  69,C  40)           59.5752         0.098405   
    599. A(O  32,H  69,H  57)           41.8666         0.095108   
    600. A(O  32,H  69,H  56)           81.3171         0.095266   
    601. A(O  32,H  69,Al 68)           90.9095         0.139838   
    602. A(C  40,H  69,H  57)           92.9279         0.095376   
    603. A(C  40,H  69,H  56)           21.9677         0.095541   
    604. A(C  40,H  69,Al 68)          115.0193         0.142063   
    605. A(H  56,H  69,H  57)          113.7952         0.093248   
    606. A(H  57,H  69,Al 68)           99.4231         0.123463   
    607. A(H  56,H  69,Al 68)          115.2395         0.124355   
    608. A(O  34,H  71,C  44)           59.0858         0.094659   
    609. A(C  44,H  71,H  59)           19.6786         0.092456   
    610. A(O  33,H  71,C  44)           76.3386         0.095264   
    611. A(O  35,H  71,C  44)           22.0912         0.098845   
    612. A(C  44,H  71,Al 60)          148.5087         0.129441   
    613. A(O  34,H  71,H  59)           73.6488         0.092429   
    614. A(O  33,H  71,O  34)           67.4251         0.095215   
    615. A(O  34,H  71,O  35)           54.6316         0.098769   
    616. A(O  34,H  71,Al 60)           89.8085         0.129126   
    617. A(O  33,H  71,H  59)           94.1025         0.092795   
    618. A(O  35,H  71,H  59)           40.6682         0.094965   
    619. A(H  59,H  71,Al 60)          161.0646         0.113504   
    620. A(O  33,H  71,O  35)           54.2476         0.099812   
    621. A(O  33,H  71,Al 60)           87.7515         0.133412   
    622. A(O  35,H  71,Al 60)          134.1325         0.158808   
    623. D(Zr  5,Zr  2,Zr  1,Zr  4)    103.5524         0.010000   
    624. D(O   7,Zr  2,Zr  1,Zr  4)    -23.6533         0.010000   
    625. D(Zr  5,Zr  2,Zr  1,O   7)    127.2057         0.010000   
    626. D(O   6,Zr  3,Zr  0,Zr  5)     23.6987         0.010000   
    627. D(Zr  4,Zr  3,Zr  0,O   6)   -122.6281         0.010000   
    628. D(Zr  4,Zr  3,Zr  0,Zr  5)    -98.9294         0.010000   
    629. D(Zr  3,Zr  4,Zr  1,Zr  2)   -107.7391         0.010000   
    630. D(Zr  1,Zr  4,Zr  3,Zr  0)    102.9282         0.010000   
    631. D(O   7,Zr  4,Zr  3,Zr  0)     76.4338         0.010000   
    632. D(Zr  1,Zr  4,Zr  3,O   6)     73.0886         0.010000   
    633. D(Zr  3,Zr  4,Zr  1,O   7)   -130.8752         0.010000   
    634. D(O   7,Zr  4,Zr  1,Zr  2)     23.1362         0.010000   
    635. D(Zr  0,Zr  5,Zr  2,Zr  1)   -107.8958         0.010000   
    636. D(Zr  2,Zr  5,Zr  0,Zr  3)    102.9726         0.010000   
    637. D(O   6,Zr  5,Zr  0,Zr  3)    -22.2923         0.010000   
    638. D(Zr  2,Zr  5,Zr  0,O   6)    125.2649         0.010000   
    639. D(Zr  0,Zr  5,Zr  2,O   7)    -80.3202         0.010000   
    640. D(O   6,Zr  5,Zr  2,Zr  1)    -77.4281         0.010000   
    641. D(Zr  5,O   6,Zr  3,Zr  0)   -126.0506         0.010000   
    642. D(Zr  0,O   6,Zr  5,Zr  2)    -52.0344         0.010000   
    643. D(Zr  0,O   6,Zr  5,O   8)    -88.0738         0.010000   
    644. D(Zr  0,O   6,Zr  3,O   9)     21.2606         0.010000   
    645. D(Zr  5,O   6,Zr  0,Zr  3)    143.2446         0.010000   
    646. D(Zr  3,O   6,Zr  5,Zr  0)    127.6194         0.010000   
    647. D(Zr  3,O   6,Zr  0,O   9)    -20.7122         0.010000   
    648. D(Zr  0,O   6,Zr  3,Zr  4)     53.6241         0.010000   
    649. D(Zr  3,O   6,Zr  0,Zr  5)   -143.2446         0.010000   
    650. D(Zr  4,O   7,Zr  1,Zr  2)   -141.5778         0.010000   
    651. D(Zr  2,O   7,Zr  1,Zr  4)    141.5778         0.010000   
    652. D(Zr  1,O   7,Zr  2,Zr  5)    -47.6154         0.010000   
    653. D(Zr  2,O   7,Zr  1,O   8)     17.7902         0.010000   
    654. D(Zr  1,O   7,Zr  4,Zr  3)     46.8972         0.010000   
    655. D(Zr  1,O   7,Zr  2,O   8)    -17.9485         0.010000   
    656. D(Zr  4,O   7,Zr  2,Zr  1)    131.3434         0.010000   
    657. D(Zr  1,O   7,Zr  4,O   9)     85.1938         0.010000   
    658. D(Zr  2,O   7,Zr  4,Zr  1)   -131.7631         0.010000   
    659. D(Zr  1,O   8,Zr  2,Zr  5)    142.2916         0.010000   
    660. D(Zr  2,O   8,Zr  5,Zr  0)     47.3936         0.010000   
    661. D(Zr  1,O   8,Zr  5,Zr  2)   -132.8087         0.010000   
    662. D(Zr  1,O   8,Zr  5,Zr  0)    -85.4151         0.010000   
    663. D(Zr  5,O   8,Zr  2,Zr  1)   -142.2916         0.010000   
    664. D(Zr  5,O   8,Zr  1,Zr  2)    132.1506         0.010000   
    665. D(Zr  2,O   8,Zr  1,O   7)    -18.0824         0.010000   
    666. D(Zr  1,O   8,Zr  2,O   7)     17.9149         0.010000   
    667. D(Zr  2,O   8,Zr  1,Zr  4)    -47.9371         0.010000   
    668. D(Zr  4,O   9,Zr  0,Zr  3)   -127.1044         0.010000   
    669. D(Zr  0,O   9,Zr  4,Zr  3)    128.6207         0.010000   
    670. D(Zr  0,O   9,Zr  4,Zr  1)     76.2624         0.010000   
    671. D(Zr  3,O   9,Zr  4,Zr  1)    -52.3583         0.010000   
    672. D(Zr  0,O   9,Zr  3,Zr  4)   -144.1772         0.010000   
    673. D(Zr  0,O   9,Zr  3,O   6)    -20.7479         0.010000   
    674. D(Zr  4,O   9,Zr  3,Zr  0)    144.1772         0.010000   
    675. D(Zr  3,O   9,Zr  0,O   6)     21.2905         0.010000   
    676. D(Zr  3,O   9,Zr  0,Zr  5)     54.0165         0.010000   
    677. D(Zr  1,O  10,Zr  3,Zr  0)    107.6220         0.010000   
    678. D(Zr  1,O  10,Zr  3,Zr  4)    175.7420         0.010000   
    679. D(Zr  4,O  10,Zr  3,Zr  0)    -68.1200         0.010000   
    680. D(Zr  1,O  10,Zr  4,O   7)    -28.4510         0.010000   
    681. D(Zr  3,O  10,Zr  1,Zr  2)   -113.8055         0.010000   
    682. D(Zr  1,O  10,Zr  4,Zr  3)   -177.6073         0.010000   
    683. D(Zr  3,O  10,Zr  1,Zr  4)   -175.6946         0.010000   
    684. D(Zr  3,O  10,Zr  4,Zr  1)    177.6073         0.010000   
    685. D(Zr  4,O  10,Zr  1,Zr  2)     61.8891         0.010000   
    686. D(Zr  2,O  11,Zr  5,Zr  0)   -178.2282         0.010000   
    687. D(Zr  5,O  11,Zr  2,Zr  1)     61.9971         0.010000   
    688. D(Zr  0,O  11,Zr  2,Zr  5)   -176.7456         0.010000   
    689. D(Zr  0,O  11,Zr  5,Zr  2)    178.2282         0.010000   
    690. D(Zr  5,O  11,Zr  0,Zr  3)    -68.2686         0.010000   
    691. D(Zr  2,O  11,Zr  0,Zr  5)    176.7728         0.010000   
    692. D(Zr  0,O  11,Zr  5,O   6)     32.9645         0.010000   
    693. D(Zr  0,O  11,Zr  2,Zr  1)   -114.7485         0.010000   
    694. D(Zr  2,O  11,Zr  0,Zr  3)    108.5042         0.010000   
    695. D(C  36,O  12,Zr  0,Zr  5)      0.4504         0.010000   
    696. D(C  36,O  12,Zr  0,Zr  3)     66.2452         0.010000   
    697. D(C  37,O  13,Zr  0,Zr  5)    -16.6562         0.010000   
    698. D(C  37,O  13,Zr  0,Zr  3)     31.0337         0.010000   
    699. D(C  38,O  14,Zr  0,Zr  5)     65.9051         0.010000   
    700. D(C  38,O  14,Zr  0,Zr  3)     29.5060         0.010000   
    701. D(C  39,O  15,Zr  0,Zr  5)     53.5316         0.010000   
    702. D(C  39,O  15,Zr  0,Zr  3)    -31.9138         0.010000   
    703. D(C  40,O  16,Zr  1,Zr  4)    -75.2298         0.010000   
    704. D(C  40,O  16,Zr  1,Zr  2)     -0.6933         0.010000   
    705. D(C  41,O  17,Zr  1,Zr  4)    -34.0509         0.010000   
    706. D(C  41,O  17,Zr  1,Zr  2)      5.7990         0.010000   
    707. D(C  42,O  18,Zr  1,Zr  4)     20.0665         0.010000   
    708. D(C  42,O  18,Zr  1,Zr  2)    -27.0056         0.010000   
    709. D(C  43,O  19,Zr  1,Zr  4)    -25.0275         0.010000   
    710. D(C  43,O  19,Zr  1,Zr  2)    -84.6311         0.010000   
    711. D(C  44,O  20,Zr  2,Zr  5)    -26.1595         0.010000   
    712. D(C  44,O  20,Zr  2,Zr  1)    -86.0798         0.010000   
    713. D(C  38,O  21,Zr  2,Zr  5)    -36.4669         0.010000   
    714. D(C  38,O  21,Zr  2,Zr  1)      1.1042         0.010000   
    715. D(C  42,O  22,Zr  2,Zr  5)     19.9235         0.010000   
    716. D(C  42,O  22,Zr  2,Zr  1)    -26.7494         0.010000   
    717. D(C  45,O  23,Zr  2,Zr  5)    -75.9802         0.010000   
    718. D(C  45,O  23,Zr  2,Zr  1)     -0.5795         0.010000   
    719. D(C  46,O  24,Zr  3,Zr  4)     52.9919         0.010000   
    720. D(C  46,O  24,Zr  3,Zr  0)    -33.2368         0.010000   
    721. D(C  37,O  25,Zr  3,Zr  4)    -16.9963         0.010000   
    722. D(C  37,O  25,Zr  3,Zr  0)     30.3635         0.010000   
    723. D(C  41,O  26,Zr  3,Zr  4)     69.0584         0.010000   
    724. D(C  41,O  26,Zr  3,Zr  0)     33.7339         0.010000   
    725. D(C  47,O  27,Zr  3,Zr  4)      1.5750         0.010000   
    726. D(C  47,O  27,Zr  3,Zr  0)     67.8316         0.010000   
    727. D(C  47,O  28,Zr  4,Zr  3)      0.4871         0.010000   
    728. D(C  47,O  28,Zr  4,Zr  1)     50.7368         0.010000   
    729. D(C  39,O  29,Zr  4,Zr  1)    -54.4824         0.010000   
    730. D(C  39,O  29,Zr  4,Zr  3)     29.9463         0.010000   
    731. D(C  43,O  30,Zr  4,Zr  3)    -99.6009         0.010000   
    732. D(C  43,O  30,Zr  4,Zr  1)    -32.9928         0.010000   
    733. D(C  45,O  31,Zr  4,Zr  3)    -26.8201         0.010000   
    734. D(C  45,O  31,Zr  4,Zr  1)    -75.0533         0.010000   
    735. D(H  67,O  32,Zr  5,Zr  0)    -69.5809         0.010000   
    736. D(C  46,O  32,Zr  5,Zr  0)     30.9053         0.010000   
    737. D(C  46,O  32,Zr  5,Zr  2)    -54.7896         0.010000   
    738. D(H  64,O  33,Zr  5,Zr  0)    170.7307         0.010000   
    739. D(C  36,O  33,Zr  5,Zr  2)     50.0135         0.010000   
    740. D(C  36,O  33,Zr  5,Zr  0)     -0.6463         0.010000   
    741. D(H  66,O  34,Zr  5,Zr  0)   -162.0731         0.010000   
    742. D(C  40,O  34,Zr  5,Zr  2)    -74.9681         0.010000   
    743. D(C  40,O  34,Zr  5,Zr  0)    -30.4051         0.010000   
    744. D(H  71,O  35,Zr  5,Zr  0)    131.4170         0.010000   
    745. D(C  44,O  35,Zr  5,Zr  2)    -34.9240         0.010000   
    746. D(C  44,O  35,Zr  5,Zr  0)   -102.0968         0.010000   
    747. D(O  12,C  36,O  33,Zr  5)      1.2711         0.068912   
    748. D(H  58,C  36,O  12,Zr  0)    179.0248         0.056561   
    749. D(O  33,C  36,O  12,Zr  0)     -1.1223         0.056561   
    750. D(H  58,C  36,O  33,Zr  5)   -178.8760         0.068912   
    751. D(O  12,C  36,O  33,H  64)   -170.6442         0.068912   
    752. D(H  51,C  37,O  25,Zr  3)    158.1795         0.045835   
    753. D(O  13,C  37,O  25,Zr  3)    -21.8348         0.045835   
    754. D(H  51,C  37,O  13,Zr  0)    156.7742         0.045788   
    755. D(O  25,C  37,O  13,Zr  0)    -23.2115         0.045788   
    756. D(H  50,C  38,O  21,Zr  2)    174.6043         0.047745   
    757. D(O  14,C  38,O  21,Zr  2)     -4.4721         0.047745   
    758. D(H  50,C  38,O  14,Zr  0)    164.9232         0.047838   
    759. D(O  21,C  38,O  14,Zr  0)    -16.0004         0.047838   
    760. D(O  15,C  39,O  29,Zr  4)      6.2377         0.048205   
    761. D(O  29,C  39,O  15,Zr  0)     -4.4783         0.048665   
    762. D(H  54,C  39,O  29,Zr  4)   -174.4375         0.048205   
    763. D(H  54,C  39,O  15,Zr  0)    176.1967         0.048665   
    764. D(H  56,C  40,O  34,Zr  5)   -166.2291         0.068279   
    765. D(O  16,C  40,O  34,H  66)    145.2799         0.068279   
    766. D(O  16,C  40,O  34,Zr  5)     13.2046         0.068279   
    767. D(H  56,C  40,O  16,Zr  1)   -144.0002         0.054872   
    768. D(O  34,C  40,O  16,Zr  1)     36.5665         0.054872   
    769. D(H  48,C  41,O  26,Zr  3)    162.1258         0.047740   
    770. D(H  48,C  41,O  17,Zr  1)    173.5706         0.047584   
    771. D(O  26,C  41,O  17,Zr  1)     -5.3997         0.047584   
    772. D(O  17,C  41,O  26,Zr  3)    -18.9042         0.047740   
    773. D(H  49,C  42,O  22,Zr  2)   -160.4504         0.045970   
    774. D(O  18,C  42,O  22,Zr  2)     19.4713         0.045970   
    775. D(H  49,C  42,O  18,Zr  1)   -160.1057         0.045960   
    776. D(O  22,C  42,O  18,Zr  1)     19.9726         0.045960   
    777. D(H  52,C  43,O  30,Zr  4)   -151.6636         0.045902   
    778. D(O  19,C  43,O  30,Zr  4)     29.1520         0.045902   
    779. D(H  52,C  43,O  19,Zr  1)   -165.4649         0.046289   
    780. D(O  30,C  43,O  19,Zr  1)     13.7199         0.046289   
    781. D(H  59,C  44,O  35,Zr  5)   -149.7589         0.055203   
    782. D(O  20,C  44,O  35,H  71)    152.8628         0.055203   
    783. D(O  20,C  44,O  35,Zr  5)     31.0679         0.055203   
    784. D(H  59,C  44,O  20,Zr  2)   -165.3793         0.051048   
    785. D(O  35,C  44,O  20,Zr  2)     13.7940         0.051048   
    786. D(H  55,C  45,O  31,Zr  4)   -163.9571         0.046481   
    787. D(O  23,C  45,O  31,Zr  4)     15.2436         0.046481   
    788. D(H  55,C  45,O  23,Zr  2)   -146.1966         0.045681   
    789. D(O  31,C  45,O  23,Zr  2)     34.6035         0.045681   
    790. D(H  57,C  46,O  32,Zr  5)   -178.0493         0.074674   
    791. D(O  24,C  46,O  32,H  67)    111.1854         0.074674   
    792. D(O  24,C  46,O  32,Zr  5)      2.5840         0.074674   
    793. D(H  57,C  46,O  24,Zr  3)    179.9731         0.063314   
    794. D(O  32,C  46,O  24,Zr  3)     -0.6584         0.063314   
    795. D(H  53,C  47,O  28,Zr  4)   -179.6416         0.046858   
    796. D(O  27,C  47,O  28,Zr  4)      0.4561         0.046858   
    797. D(H  53,C  47,O  27,Zr  3)    178.1524         0.046906   
    798. D(O  28,C  47,O  27,Zr  3)     -1.9454         0.046906   
    799. D(H  66,H  56,C  40,O  16)   -152.8498         0.145375   
    800. D(H  69,H  56,C  40,O  34)     76.7375         0.145375   
    801. D(H  69,H  56,C  40,O  16)   -102.7809         0.145375   
    802. D(H  69,H  57,C  46,O  24)    147.3811         0.168316   
    803. D(H  62,H  57,C  46,O  32)     26.8096         0.168316   
    804. D(H  62,H  57,C  46,O  24)   -153.7345         0.168316   
    805. D(H  64,H  58,C  36,O  12)    172.5611         0.142660   
    806. D(H  67,H  58,C  36,O  33)    -55.9054         0.142660   
    807. D(H  67,H  58,C  36,O  12)    123.9644         0.142660   
    808. D(H  71,H  59,C  44,O  35)     20.9101         0.119695   
    809. D(H  71,H  59,C  44,O  20)   -159.8298         0.119695   
    810. D(H  63,Al 61,Al 60,H  64)    -97.8307         0.010000   
    811. D(H  62,Al 61,Al 60,H  65)    -98.4283         0.010000   
    812. D(H  62,Al 61,Al 60,H  64)    156.3225         0.010000   
    813. D(H  57,H  62,Al 61,Al 60)   -108.2745         0.010000   
    814. D(Al 68,H  62,Al 61,H  63)    -96.5096         0.010000   
    815. D(Al 68,H  62,Al 61,Al 60)      7.8218         0.010000   
    816. D(Al 68,H  62,H  57,C  46)    -79.7525         0.010000   
    817. D(Al 61,H  62,H  57,H  69)    130.7005         0.010000   
    818. D(Al 61,H  62,H  57,C  46)     39.5853         0.010000   
    819. D(Al 68,H  62,C  46,O  24)    162.4266         0.010000   
    820. D(Al 61,H  62,C  46,O  32)     61.4808         0.010000   
    821. D(Al 61,H  62,C  46,O  24)    -85.3598         0.010000   
    822. D(Al 68,H  62,O  32,Zr  5)    -67.4914         0.010000   
    823. D(Al 61,H  62,O  32,C  46)   -119.6235         0.010000   
    824. D(Al 61,H  62,O  32,Zr  5)     42.7284         0.010000   
    825. D(O  33,H  64,Al 61,Al 60)    113.3637         0.010000   
    826. D(Al 60,H  64,Al 61,H  63)     91.0625         0.010000   
    827. D(O  33,H  64,Al 60,Al 61)   -111.1889         0.010000   
    828. D(Al 61,H  64,Al 60,H  66)     42.0057         0.010000   
    829. D(Al 61,H  64,Al 60,H  65)    -83.5360         0.010000   
    830. D(Al 61,H  64,H  58,C  36)    -92.1086         0.010000   
    831. D(Al 60,H  64,H  58,H  67)    128.6085         0.010000   
    832. D(Al 60,H  64,H  58,C  36)     50.9251         0.010000   
    833. D(Al 61,H  64,C  36,O  12)    -36.6772         0.010000   
    834. D(Al 60,H  64,C  36,O  33)     28.6452         0.010000   
    835. D(Al 60,H  64,C  36,O  12)     88.8410         0.010000   
    836. D(Al 60,H  64,Al 61,H  62)    -29.6836         0.010000   
    837. D(Al 61,H  64,O  33,Zr  5)    -85.0721         0.010000   
    838. D(Al 60,H  64,O  33,C  36)   -156.3551         0.010000   
    839. D(Al 60,H  64,O  33,Zr  5)     30.4828         0.010000   
    840. D(O  34,H  66,Al 60,Al 61)     95.3499         0.010000   
    841. D(Al 68,H  66,Al 60,H  64)    -48.7316         0.010000   
    842. D(Al 68,H  66,Al 60,Al 61)    -26.0349         0.010000   
    843. D(Al 68,H  66,H  56,C  40)    100.0048         0.010000   
    844. D(Al 60,H  66,H  56,H  69)   -129.8181         0.010000   
    845. D(Al 60,H  66,H  56,C  40)    -36.8387         0.010000   
    846. D(Al 68,H  66,C  40,O  16)     30.1430         0.010000   
    847. D(Al 60,H  66,C  40,O  34)      7.2569         0.010000   
    848. D(Al 60,H  66,C  40,O  16)    -92.9213         0.010000   
    849. D(Al 68,H  66,O  34,Zr  5)     86.4902         0.010000   
    850. D(Al 60,H  66,O  34,C  40)   -174.2430         0.010000   
    851. D(Al 60,H  66,O  34,Zr  5)    -33.7260         0.010000   
    852. D(O  32,H  67,Al 61,Al 60)     48.1108         0.010000   
    853. D(O  33,H  67,Al 61,H  62)   -108.4837         0.010000   
    854. D(O  33,H  67,Al 61,Al 60)     -8.5176         0.010000   
    855. D(Al 61,H  67,H  58,H  64)     15.2234         0.010000   
    856. D(Al 61,H  67,H  58,C  36)    114.2981         0.010000   
    857. D(O  33,H  67,H  57,C  46)    -28.9063         0.010000   
    858. D(Al 61,H  67,H  57,H  62)      9.6895         0.010000   
    859. D(Al 61,H  67,H  57,C  46)   -125.7063         0.010000   
    860. D(O  33,H  67,C  46,O  24)    -95.7896         0.010000   
    861. D(Al 61,H  67,C  46,O  32)    -63.3429         0.010000   
    862. D(Al 61,H  67,C  46,O  24)    171.4229         0.010000   
    863. D(O  33,H  67,C  36,O  12)    120.4403         0.010000   
    864. D(Al 61,H  67,C  36,O  33)     53.7180         0.010000   
    865. D(Al 61,H  67,C  36,O  12)    174.1583         0.010000   
    866. D(O  32,H  67,O  33,Zr  5)      1.9994         0.010000   
    867. D(Al 61,H  67,O  33,C  36)   -131.4211         0.010000   
    868. D(O  33,H  67,H  58,C  36)     31.8814         0.010000   
    869. D(Al 61,H  67,O  33,Zr  5)     93.6106         0.010000   
    870. D(O  33,H  67,O  32,Zr  5)     -1.8579         0.010000   
    871. D(Al 61,H  67,O  32,C  46)    121.0262         0.010000   
    872. D(Al 61,H  67,O  32,Zr  5)    -96.0973         0.010000   
    873. D(Al 60,Al 68,Al 61,H  63)    -95.8904         0.010000   
    874. D(Al 60,Al 68,Al 61,H  62)    170.9576         0.010000   
    875. D(H  62,Al 68,Al 60,Al 61)      5.2032         0.010000   
    876. D(Al 61,Al 68,Al 60,H  65)     97.4731         0.010000   
    877. D(Al 61,Al 68,Al 60,H  64)    -10.5511         0.010000   
    878. D(Al 61,Al 68,H  66,Al 60)     26.0234         0.010000   
    879. D(Al 60,Al 68,H  66,H  56)   -157.6900         0.010000   
    880. D(Al 60,Al 68,H  66,O  34)   -120.7491         0.010000   
    881. D(Al 61,Al 68,H  62,H  57)    121.5588         0.010000   
    882. D(Al 60,Al 68,H  62,H  57)    113.6969         0.010000   
    883. D(Al 60,Al 68,H  62,Al 61)     -7.8619         0.010000   
    884. D(H  62,Al 68,Al 61,Al 60)   -170.9576         0.010000   
    885. D(H  56,H  69,Al 68,Al 61)    109.7140         0.010049   
    886. D(H  56,H  69,Al 68,Al 60)     34.6010         0.010049   
    887. D(H  56,H  69,H  57,C  46)    -23.7449         0.010000   
    888. D(Al 68,H  69,H  57,C  46)     99.3189         0.010000   
    889. D(H  57,H  69,H  56,C  40)     19.2758         0.010000   
    890. D(Al 68,H  69,H  56,H  66)     -8.0763         0.010000   
    891. D(Al 68,H  69,H  56,C  40)    -94.6583         0.010000   
    892. D(H  56,H  69,C  46,O  24)     76.8509         0.010000   
    893. D(Al 68,H  69,C  46,O  32)     64.3387         0.010000   
    894. D(Al 68,H  69,C  46,O  24)   -165.7549         0.010000   
    895. D(H  56,H  69,C  40,O  16)    109.5764         0.010000   
    896. D(Al 68,H  69,C  40,O  34)    -22.3694         0.010000   
    897. D(Al 68,H  69,C  40,O  16)   -154.6357         0.010000   
    898. D(H  56,H  69,O  34,Zr  5)    152.2717         0.010000   
    899. D(Al 68,H  69,O  34,C  40)    159.8093         0.010000   
    900. D(Al 68,H  69,H  57,H  62)    -11.6032         0.010000   
    901. D(Al 68,H  69,O  34,Zr  5)    -79.2003         0.010000   
    902. D(H  56,H  69,O  32,Zr  5)    -34.3305         0.010000   
    903. D(Al 68,H  69,O  32,C  46)   -118.1309         0.010000   
    904. D(H  57,H  69,Al 68,Al 60)    -87.4306         0.010049   
    905. D(Al 68,H  69,O  32,Zr  5)     81.0721         0.010000   
    906. D(O  33,H  71,Al 60,Al 61)     -6.6102         0.010000   
    907. D(O  35,H  71,Al 60,Al 61)    -38.0936         0.010000   
    908. D(O  35,H  71,H  59,C  44)    -14.5718         0.010000   
    909. D(Al 60,H  71,H  59,C  44)     69.6936         0.010000   
    910. D(O  35,H  71,C  44,O  20)    -82.7724         0.010000   
    911. D(Al 60,H  71,C  44,O  35)     61.4805         0.010000   
    912. D(Al 60,H  71,C  44,O  20)    -21.2919         0.010000   
    913. D(O  33,H  71,O  35,Zr  5)    -41.9440         0.010000   
    914. D(Al 60,H  71,O  35,C  44)   -140.2462         0.010000   
    915. D(Al 60,H  71,O  35,Zr  5)     -1.9259         0.010000   
[...]
** The dipole moment derivative (T) already includes vibrational overlap.

The first frequency considered to be a vibration is 7
The total number of vibrations considered is 209


--------------------------
THERMOCHEMISTRY AT 298.15K
--------------------------

Temperature         ...   298.15 K
Pressure            ...     1.00 atm
Total Mass          ...  1273.54 AMU
Quasi RRHO          ...     True
Cut-Off Frequency   ...     1.00 cm^-1

Throughout the following assumptions are being made:
  (1) The electronic state is orbitally nondegenerate
  (2) There are no thermally accessible electronically excited states
  (3) Hindered rotations indicated by low frequency modes are not
      treated as such but are treated as vibrations and this may
      cause some error
  (4) All equations used are the standard statistical mechanics
      equations for an ideal gas
  (5) All vibrations are strictly harmonic

freq.      15.94  E(vib)   ...       0.57 
freq.      22.60  E(vib)   ...       0.56 
freq.      27.44  E(vib)   ...       0.55 
freq.      30.90  E(vib)   ...       0.55 
freq.      36.06  E(vib)   ...       0.54 
freq.      38.53  E(vib)   ...       0.54 
freq.      50.53  E(vib)   ...       0.52 
freq.      52.45  E(vib)   ...       0.52 
freq.      58.44  E(vib)   ...       0.51 
freq.      60.27  E(vib)   ...       0.51 
freq.      70.56  E(vib)   ...       0.50 
freq.      78.76  E(vib)   ...       0.49 
freq.      79.67  E(vib)   ...       0.49 
freq.      83.87  E(vib)   ...       0.48 
freq.      92.86  E(vib)   ...       0.47 
freq.      94.50  E(vib)   ...       0.47 
freq.      99.44  E(vib)   ...       0.46 
freq.     100.06  E(vib)   ...       0.46 
freq.     102.36  E(vib)   ...       0.46 
freq.     105.71  E(vib)   ...       0.45 
freq.     107.73  E(vib)   ...       0.45 
freq.     109.30  E(vib)   ...       0.45 
freq.     116.67  E(vib)   ...       0.44 
freq.     119.85  E(vib)   ...       0.44 
freq.     124.61  E(vib)   ...       0.43 
freq.     128.08  E(vib)   ...       0.43 
freq.     143.53  E(vib)   ...       0.41 
freq.     149.23  E(vib)   ...       0.40 
freq.     151.06  E(vib)   ...       0.40 
freq.     152.25  E(vib)   ...       0.40 
freq.     152.97  E(vib)   ...       0.40 
freq.     153.59  E(vib)   ...       0.40 
freq.     158.29  E(vib)   ...       0.39 
freq.     160.18  E(vib)   ...       0.39 
freq.     161.64  E(vib)   ...       0.39 
freq.     164.54  E(vib)   ...       0.39 
freq.     166.19  E(vib)   ...       0.39 
freq.     167.95  E(vib)   ...       0.38 
freq.     169.54  E(vib)   ...       0.38 
freq.     171.42  E(vib)   ...       0.38 
freq.     174.81  E(vib)   ...       0.38 
freq.     184.43  E(vib)   ...       0.37 
freq.     187.04  E(vib)   ...       0.36 
freq.     190.02  E(vib)   ...       0.36 
freq.     193.00  E(vib)   ...       0.36 
freq.     195.45  E(vib)   ...       0.36 
freq.     198.02  E(vib)   ...       0.35 
freq.     204.36  E(vib)   ...       0.35 
freq.     208.89  E(vib)   ...       0.34 
freq.     214.13  E(vib)   ...       0.34 
freq.     215.80  E(vib)   ...       0.34 
freq.     229.34  E(vib)   ...       0.32 
freq.     230.57  E(vib)   ...       0.32 
freq.     234.80  E(vib)   ...       0.32 
freq.     238.17  E(vib)   ...       0.32 
freq.     245.89  E(vib)   ...       0.31 
freq.     246.33  E(vib)   ...       0.31 
freq.     258.77  E(vib)   ...       0.30 
freq.     260.02  E(vib)   ...       0.30 
freq.     263.97  E(vib)   ...       0.29 
freq.     264.89  E(vib)   ...       0.29 
freq.     266.42  E(vib)   ...       0.29 
freq.     267.35  E(vib)   ...       0.29 
freq.     269.47  E(vib)   ...       0.29 
freq.     271.47  E(vib)   ...       0.29 
freq.     273.39  E(vib)   ...       0.29 
freq.     274.43  E(vib)   ...       0.28 
freq.     276.79  E(vib)   ...       0.28 
freq.     277.64  E(vib)   ...       0.28 
freq.     279.71  E(vib)   ...       0.28 
freq.     281.79  E(vib)   ...       0.28 
freq.     286.20  E(vib)   ...       0.27 
freq.     288.27  E(vib)   ...       0.27 
freq.     293.86  E(vib)   ...       0.27 
freq.     296.13  E(vib)   ...       0.27 
freq.     297.50  E(vib)   ...       0.27 
freq.     301.40  E(vib)   ...       0.26 
freq.     305.02  E(vib)   ...       0.26 
freq.     310.93  E(vib)   ...       0.26 
freq.     311.84  E(vib)   ...       0.25 
freq.     313.72  E(vib)   ...       0.25 
freq.     315.93  E(vib)   ...       0.25 
freq.     317.40  E(vib)   ...       0.25 
freq.     319.41  E(vib)   ...       0.25 
freq.     323.51  E(vib)   ...       0.25 
freq.     328.55  E(vib)   ...       0.24 
freq.     329.32  E(vib)   ...       0.24 
freq.     332.78  E(vib)   ...       0.24 
freq.     341.19  E(vib)   ...       0.23 
freq.     342.87  E(vib)   ...       0.23 
freq.     352.63  E(vib)   ...       0.22 
freq.     354.25  E(vib)   ...       0.22 
freq.     362.89  E(vib)   ...       0.22 
freq.     370.95  E(vib)   ...       0.21 
freq.     385.38  E(vib)   ...       0.20 
freq.     396.94  E(vib)   ...       0.20 
freq.     400.74  E(vib)   ...       0.19 
freq.     402.30  E(vib)   ...       0.19 
freq.     403.36  E(vib)   ...       0.19 
freq.     417.04  E(vib)   ...       0.18 
freq.     417.90  E(vib)   ...       0.18 
freq.     418.59  E(vib)   ...       0.18 
freq.     421.04  E(vib)   ...       0.18 
freq.     424.40  E(vib)   ...       0.18 
freq.     426.34  E(vib)   ...       0.18 
freq.     433.86  E(vib)   ...       0.17 
freq.     477.63  E(vib)   ...       0.15 
freq.     481.92  E(vib)   ...       0.15 
freq.     483.08  E(vib)   ...       0.15 
freq.     494.93  E(vib)   ...       0.14 
freq.     509.15  E(vib)   ...       0.14 
freq.     529.77  E(vib)   ...       0.13 
freq.     536.96  E(vib)   ...       0.12 
freq.     542.73  E(vib)   ...       0.12 
freq.     626.53  E(vib)   ...       0.09 
freq.     668.50  E(vib)   ...       0.08 
freq.     680.86  E(vib)   ...       0.08 
freq.     681.37  E(vib)   ...       0.08 
freq.     686.71  E(vib)   ...       0.07 
freq.     690.54  E(vib)   ...       0.07 
freq.     693.92  E(vib)   ...       0.07 
freq.     712.74  E(vib)   ...       0.07 
freq.     725.38  E(vib)   ...       0.06 
freq.     732.95  E(vib)   ...       0.06 
freq.     733.54  E(vib)   ...       0.06 
freq.     734.05  E(vib)   ...       0.06 
freq.     736.05  E(vib)   ...       0.06 
freq.     736.61  E(vib)   ...       0.06 
freq.     737.69  E(vib)   ...       0.06 
freq.     738.68  E(vib)   ...       0.06 
freq.     738.94  E(vib)   ...       0.06 
freq.     739.39  E(vib)   ...       0.06 
freq.     739.95  E(vib)   ...       0.06 
freq.     740.26  E(vib)   ...       0.06 
freq.     742.12  E(vib)   ...       0.06 
freq.     743.21  E(vib)   ...       0.06 
freq.     774.23  E(vib)   ...       0.05 
freq.     895.78  E(vib)   ...       0.03 
freq.     962.44  E(vib)   ...       0.03 
freq.     995.40  E(vib)   ...       0.02 
freq.     998.92  E(vib)   ...       0.02 
freq.     999.64  E(vib)   ...       0.02 
freq.     999.77  E(vib)   ...       0.02 
freq.    1000.25  E(vib)   ...       0.02 
freq.    1001.65  E(vib)   ...       0.02 
freq.    1004.05  E(vib)   ...       0.02 
freq.    1004.71  E(vib)   ...       0.02 
freq.    1005.79  E(vib)   ...       0.02 
freq.    1006.05  E(vib)   ...       0.02 
freq.    1006.47  E(vib)   ...       0.02 
freq.    1006.87  E(vib)   ...       0.02 
freq.    1031.42  E(vib)   ...       0.02 
freq.    1347.06  E(vib)   ...       0.01 
freq.    1348.79  E(vib)   ...       0.01 
freq.    1351.03  E(vib)   ...       0.01 
freq.    1351.52  E(vib)   ...       0.01 
freq.    1352.63  E(vib)   ...       0.01 
freq.    1353.35  E(vib)   ...       0.01 
freq.    1353.56  E(vib)   ...       0.01 
freq.    1354.20  E(vib)   ...       0.01 
freq.    1354.82  E(vib)   ...       0.01 
freq.    1355.25  E(vib)   ...       0.01 
freq.    1356.02  E(vib)   ...       0.01 
freq.    1356.84  E(vib)   ...       0.01 
freq.    1361.56  E(vib)   ...       0.01 
freq.    1362.48  E(vib)   ...       0.01 
freq.    1363.86  E(vib)   ...       0.01 
freq.    1364.25  E(vib)   ...       0.01 
freq.    1364.68  E(vib)   ...       0.01 
freq.    1365.09  E(vib)   ...       0.01 
freq.    1367.77  E(vib)   ...       0.01 
freq.    1368.23  E(vib)   ...       0.01 
freq.    1371.13  E(vib)   ...       0.01 
freq.    1371.99  E(vib)   ...       0.01 
freq.    1372.54  E(vib)   ...       0.01 
freq.    1380.53  E(vib)   ...       0.01 
freq.    1538.21  E(vib)   ...       0.00 
freq.    1546.92  E(vib)   ...       0.00 
freq.    1561.24  E(vib)   ...       0.00 
freq.    1562.27  E(vib)   ...       0.00 
freq.    1566.63  E(vib)   ...       0.00 
freq.    1574.69  E(vib)   ...       0.00 
freq.    1576.04  E(vib)   ...       0.00 
freq.    1627.42  E(vib)   ...       0.00 
freq.    1631.70  E(vib)   ...       0.00 
freq.    1633.05  E(vib)   ...       0.00 
freq.    1635.40  E(vib)   ...       0.00 
freq.    1637.02  E(vib)   ...       0.00 
freq.    1706.42  E(vib)   ...       0.00 
freq.    1790.28  E(vib)   ...       0.00 
freq.    1800.12  E(vib)   ...       0.00 
freq.    1876.45  E(vib)   ...       0.00 
freq.    1883.43  E(vib)   ...       0.00 
freq.    1887.00  E(vib)   ...       0.00 
freq.    1891.79  E(vib)   ...       0.00 
freq.    1896.55  E(vib)   ...       0.00 
freq.    1915.95  E(vib)   ...       0.00 
freq.    2883.68  E(vib)   ...       0.00 
freq.    2884.27  E(vib)   ...       0.00 
freq.    2887.87  E(vib)   ...       0.00 
freq.    2892.14  E(vib)   ...       0.00 
freq.    2895.48  E(vib)   ...       0.00 
freq.    2897.61  E(vib)   ...       0.00 
freq.    2905.80  E(vib)   ...       0.00 
freq.    2906.99  E(vib)   ...       0.00 
freq.    2907.95  E(vib)   ...       0.00 
freq.    2909.27  E(vib)   ...       0.00 
freq.    2910.30  E(vib)   ...       0.00 
freq.    2912.11  E(vib)   ...       0.00 

------------
INNER ENERGY
------------

The inner energy is: U= E(el) + E(ZPE) + E(vib) + E(rot) + E(trans)
    E(el)   - is the total energy from the electronic structure calculation
              = E(kin-el) + E(nuc-el) + E(el-el) + E(nuc-nuc)
    E(ZPE)  - the the zero temperature vibrational energy from the frequency calculation
    E(vib)  - the the finite temperature correction to E(ZPE) due to population
              of excited vibrational states
    E(rot)  - is the rotational thermal energy
    E(trans)- is the translational thermal energy

Summary of contributions to the inner energy U:
Electronic energy                ...  -3732.51349026 Eh
Zero point energy                ...      0.37052570 Eh     232.51 kcal/mol
Thermal vibrational correction   ...      0.06245669 Eh      39.19 kcal/mol
Thermal rotational correction    ...      0.00141627 Eh       0.89 kcal/mol
Thermal translational correction ...      0.00141627 Eh       0.89 kcal/mol
-----------------------------------------------------------------------
Total thermal energy                  -3732.07767533 Eh


Summary of corrections to the electronic energy:
(perhaps to be used in another calculation)
Total thermal correction                  0.06528923 Eh      40.97 kcal/mol
Non-thermal (ZPE) correction              0.37052570 Eh     232.51 kcal/mol
-----------------------------------------------------------------------
Total correction                          0.43581492 Eh     273.48 kcal/mol


--------
ENTHALPY
--------

The enthalpy is H = U + kB*T
                kB is Boltzmann's constant
Total thermal energy              ...  -3732.07767533 Eh 
Thermal Enthalpy correction       ...      0.00094421 Eh       0.59 kcal/mol
-----------------------------------------------------------------------
Total Enthalpy                    ...  -3732.07673112 Eh


Note: Only C1 symmetry has been detected, increase convergence thresholds 
      if your molecule has a higher symmetry. Symmetry factor of 1.0 is   
      used for the rotational entropy correction. 
 

Note: Rotational entropy computed according to Herzberg 
Infrared and Raman Spectra, Chapter V,1, Van Nostrand Reinhold, 1945 
Point Group:  C1, Symmetry Number:   1  
Rotational constants in cm-1:     0.001772     0.001271     0.001249 

Vibrational entropy computed according to the QRRHO of S. Grimme
Chem.Eur.J. 2012 18 9955 using a reference frequency of 100.0 cm-1


-------
ENTROPY
-------

The entropy contributions are T*S = T*(S(el)+S(vib)+S(rot)+S(trans))
     S(el)   - electronic entropy
     S(vib)  - vibrational entropy
     S(rot)  - rotational entropy
     S(trans)- translational entropy
The entropies will be listed as multiplied by the temperature to get
units of energy

Electronic entropy                ...      0.00000000 Eh      0.00 kcal/mol
Vibrational entropy               ...      0.11267683 Eh     70.71 kcal/mol
Rotational entropy                ...      0.01880598 Eh     11.80 kcal/mol
Translational entropy             ...      0.02247478 Eh     14.10 kcal/mol
-----------------------------------------------------------------------
Final entropy term                ...      0.15395759 Eh     96.61 kcal/mol

In case the symmetry of your molecule has not been determined correctly
or in case you have a reason to use a different symmetry number we print 
out the resulting rotational entropy values for sn=1,12:

 non-linear molecules -----------------------------------
|  sn= 1 | S(rot)=       0.01880598 Eh     11.80 kcal/mol|
|  sn= 2 | S(rot)=       0.01815152 Eh     11.39 kcal/mol|
|  sn= 3 | S(rot)=       0.01776869 Eh     11.15 kcal/mol|
|  sn= 4 | S(rot)=       0.01749707 Eh     10.98 kcal/mol|
|  sn= 5 | S(rot)=       0.01728638 Eh     10.85 kcal/mol|
|  sn= 6 | S(rot)=       0.01711423 Eh     10.74 kcal/mol|
|  sn= 7 | S(rot)=       0.01696869 Eh     10.65 kcal/mol|
|  sn= 8 | S(rot)=       0.01684261 Eh     10.57 kcal/mol|
|  sn= 9 | S(rot)=       0.01673140 Eh     10.50 kcal/mol|
|  sn=10 | S(rot)=       0.01663192 Eh     10.44 kcal/mol|
|  sn=11 | S(rot)=       0.01654193 Eh     10.38 kcal/mol|
|  sn=12 | S(rot)=       0.01645978 Eh     10.33 kcal/mol|
 linear molecules ---------------------------------------
|  Dinfh | S(rot)=       0.01163836 Eh      7.30 kcal/mol|
|  Cinfv | S(rot)=       0.01229281 Eh      7.71 kcal/mol|
 --------------------------------------------------------


-------------------
GIBBS FREE ENERGY
-------------------

The Gibbs free energy is G = H - T*S

Total enthalpy                    ...  -3732.07673112 Eh 
Total entropy correction          ...     -0.15395759 Eh    -96.61 kcal/mol
-----------------------------------------------------------------------
Final Gibbs free energy         ...  -3732.23068871 Eh

For completeness - the Gibbs free energy minus the electronic energy
G-E(el)                           ...      0.28280155 Eh    177.46 kcal/mol


Maximum memory used throughout the entire PROP-calculation: 144.6 MB

--------------------------------
SUGGESTED CITATIONS FOR THIS RUN
--------------------------------

Below you find a list of papers that are relevant to this ORCA run
We neither can nor want to force you to cite these papers, but we appreciate if you do
You receive ORCA, which is the product of decades of hard work by many enthusiastic individuals, for free
The only thing we kindly ask in return is that you cite our papers,
We deeply appreciate it, if you show your appreciation for ORCA by not just citing the generic ORCA reference.

Please note that relegating all ORCA citations to the supporting information does *not* help us.
SI sections are not indexed - citations you put there will not count into any citation statistics
But we need these citations in order to attract the funding resources that allow us to do what we are doing

Therefore, if you are a happy ORCA user, please consider citing a few of the papers listed below in the main body of your paper

In addition to the list printed below, the program has created the file run.bibtex that contains the list in bibtex format
You can import this file easily into all common literature databanks and citation aid programs


List of essential papers. We consider these as the minimum necessary citations

  1. Neese, F.
     Software update: the ORCA program system, version 6.0
     WIRES Comput. Molec. Sci. 2025 15(1), e70019
     doi.org/10.1002/wcms.7019

List of papers to cite with high priority. The work reported in these papers was absolutely
necessary for this run to complete.
Our perspective: the developers of density functionals and basis sets usually get cited in chemistry papers
Good! But without the algorithms to do something with them, the functionals or basis sets would not do anything.
Hence, in our opinion, the algorithm design and method developments papers are equally worthy of getting cited

  1. Neese, F.
     An improvement of the resolution of the identity approximation for the formation of the Coulomb matrix
     J. Comp. Chem. 2003 24(14), 1740-1747
     doi.org/10.1002/jcc.10318
  2. Grimme, S.; Antony, J.; Ehrlich, S.; Krieg, H.
     A consistent and accurate ab initio parametrization of density functional dispersion correction (DFT-D) for the 94 elements H-Pu
     J. Chem. Phys. 2010 132 , 154104
     doi.org/10.1063/1.3382344
  3. Grimme, S.; Ehrlich, S.; Goerigk, L.
     Effect of the damping function in dispersion corrected density functional theory
     J. Comput. Chem. 2011 32(7), 1456-1465
     doi.org/10.1002/jcc.21759
  4. Bykov, D.; Petrenko, T.; Izsak, R.; Kossmann, S.; Becker, U.; Valeev, E.; Neese, F.
     Efficient implementation of the analytic second derivatives of Hartree-Fock and hybrid DFT energies: a detailed analysis of different approximations
     Molec. Phys. 2015 113 , 1961-1977
     doi.org/10.1080/00268976.2015.1025114
  5. Helmich-Paris, B.
     A trust-region augmented Hessian implementation for restricted and unrestricted Hartree–Fock and Kohn–Sham methods
     J. Chem. Phys. 2021 154 , 164104
     doi.org/10.1063/5.0040798
  6. Neese, F.
     The SHARK Integral Generation and Digestion System
     J. Comp. Chem. 2022 44(3), 381
     doi.org/10.1002/jcc.26942

List of suggested additional citations. These are papers that are important in the 'surrounding' of 
of this run, or papers that preceded the highly important papers. If you like your results we are grateful for a citation.

  1. Neese, F.
     The ORCA program system
     WIRES Comput. Molec. Sci. 2012 2(1), 73-78
     doi.org/10.1002/wcms.81
  2. Neese, F.
     Software update: the ORCA program system, version 4.0
     WIRES Comput. Molec. Sci. 2018 8(1), 1-6
     doi.org/10.1002/wcms.1327
  3. Neese, F.; Wennmohs, F.; Becker, U.; Riplinger, C.
     The ORCA quantum chemistry program package
     J. Chem. Phys. 2020 152(22), 224108
     doi.org/10.1063/5.0004608
  4. Neese, F.
     Software update: The ORCA program system—Version 5.0
     WIRES Comput. Molec. Sci. 2022 12(1), e1606
     doi.org/10.1002/wcms.1606

List of optional additional citations

  1. Neese, F.
     Approximate second-order SCF convergence for spin unrestricted wavefunctions
     Chem. Phys. Lett. 2000 325(1-3), 93-98
     doi.org/10.1016/s0009-2614(00)00662-x

Timings for individual modules:

Sum of individual times          ...     8781.221 sec (= 146.354 min)
Startup calculation              ...      349.272 sec (=   5.821 min)   4.0 %
SCF iterations                   ...     2321.193 sec (=  38.687 min)  26.4 %
Property integrals               ...     2088.298 sec (=  34.805 min)  23.8 %
SCF Response                     ...     1371.698 sec (=  22.862 min)  15.6 %
Property calculations            ...     1769.201 sec (=  29.487 min)  20.1 %
SCF Gradient evaluation          ...      857.530 sec (=  14.292 min)   9.8 %
Geometry relaxation              ...       24.030 sec (=   0.400 min)   0.3 %
                             ****ORCA TERMINATED NORMALLY****
TOTAL RUN TIME: 0 days 2 hours 26 minutes 44 seconds 176 msec
