
                                 *****************
                                 * O   R   C   A *
                                 *****************

                                            #,                                       
                                            ###                                      
                                            ####                                     
                                            #####                                    
                                            ######                                   
                                           ########,                                 
                                     ,,################,,,,,                         
                               ,,#################################,,                 
                          ,,##########################################,,             
                       ,#########################################, ''#####,          
                    ,#############################################,,   '####,        
                  ,##################################################,,,,####,       
                ,###########''''           ''''###############################       
              ,#####''   ,,,,##########,,,,          '''####'''          '####       
            ,##' ,,,,###########################,,,                        '##       
           ' ,,###''''                  '''############,,,                           
         ,,##''                                '''############,,,,        ,,,,,,###''
      ,#''                                            '''#######################'''  
     '                                                          ''''####''''         
             ,#######,   #######,   ,#######,      ##                                
            ,#'     '#,  ##    ##  ,#'     '#,    #''#        ######   ,####,        
            ##       ##  ##   ,#'  ##            #'  '#       #        #'  '#        
            ##       ##  #######   ##           ,######,      #####,   #    #        
            '#,     ,#'  ##    ##  '#,     ,#' ,#      #,         ##   #,  ,#        
             '#######'   ##     ##  '#######'  #'      '#     #####' # '####'        



                  #######################################################
                  #                        -***-                        #
                  #          Department of theory and spectroscopy      #
                  #    Directorship and core code : Frank Neese         #
                  #        Max Planck Institute fuer Kohlenforschung    #
                  #                Kaiser Wilhelm Platz 1               #
                  #                 D-45470 Muelheim/Ruhr               #
                  #                      Germany                        #
                  #                                                     #
                  #                  All rights reserved                #
                  #                        -***-                        #
                  #######################################################


                         Program Version 5.0.4 -  RELEASE  -


 With contributions from (in alphabetic order):
   Daniel Aravena         : Magnetic Suceptibility
   Michael Atanasov       : Ab Initio Ligand Field Theory (pilot matlab implementation)
   Alexander A. Auer      : GIAO ZORA, VPT2 properties, NMR spectrum
   Ute Becker             : Parallelization
   Giovanni Bistoni       : ED, misc. LED, open-shell LED, HFLD
   Martin Brehm           : Molecular dynamics
   Dmytro Bykov           : SCF Hessian
   Vijay G. Chilkuri      : MRCI spin determinant printing, contributions to CSF-ICE
   Dipayan Datta          : RHF DLPNO-CCSD density
   Achintya Kumar Dutta   : EOM-CC, STEOM-CC
   Dmitry Ganyushin       : Spin-Orbit,Spin-Spin,Magnetic field MRCI
   Miquel Garcia          : C-PCM and meta-GGA Hessian, CC/C-PCM, Gaussian charge scheme
   Yang Guo               : DLPNO-NEVPT2, F12-NEVPT2, CIM, IAO-localization
   Andreas Hansen         : Spin unrestricted coupled pair/coupled cluster methods
   Benjamin Helmich-Paris : MC-RPA, TRAH-SCF, COSX integrals
   Lee Huntington         : MR-EOM, pCC
   Robert Izsak           : Overlap fitted RIJCOSX, COSX-SCS-MP3, EOM
   Marcus Kettner         : VPT2
   Christian Kollmar      : KDIIS, OOCD, Brueckner-CCSD(T), CCSD density, CASPT2, CASPT2-K
   Simone Kossmann        : Meta GGA functionals, TD-DFT gradient, OOMP2, MP2 Hessian
   Martin Krupicka        : Initial AUTO-CI
   Lucas Lang             : DCDCAS
   Marvin Lechner         : AUTO-CI (C++ implementation), FIC-MRCC
   Dagmar Lenk            : GEPOL surface, SMD
   Dimitrios Liakos       : Extrapolation schemes; Compound Job, initial MDCI parallelization
   Dimitrios Manganas     : Further ROCIS development; embedding schemes
   Dimitrios Pantazis     : SARC Basis sets
   Anastasios Papadopoulos: AUTO-CI, single reference methods and gradients
   Taras Petrenko         : DFT Hessian,TD-DFT gradient, ASA, ECA, R-Raman, ABS, FL, XAS/XES, NRVS
   Peter Pinski           : DLPNO-MP2, DLPNO-MP2 Gradient
   Christoph Reimann      : Effective Core Potentials
   Marius Retegan         : Local ZFS, SOC
   Christoph Riplinger    : Optimizer, TS searches, QM/MM, DLPNO-CCSD(T), (RO)-DLPNO pert. Triples
   Tobias Risthaus        : Range-separated hybrids, TD-DFT gradient, RPA, STAB
   Michael Roemelt        : Original ROCIS implementation
   Masaaki Saitow         : Open-shell DLPNO-CCSD energy and density
   Barbara Sandhoefer     : DKH picture change effects
   Avijit Sen             : IP-ROCIS
   Kantharuban Sivalingam : CASSCF convergence, NEVPT2, FIC-MRCI
   Bernardo de Souza      : ESD, SOC TD-DFT
   Georgi Stoychev        : AutoAux, RI-MP2 NMR, DLPNO-MP2 response
   Willem Van den Heuvel  : Paramagnetic NMR
   Boris Wezisla          : Elementary symmetry handling
   Frank Wennmohs         : Technical directorship


 We gratefully acknowledge several colleagues who have allowed us to
 interface, adapt or use parts of their codes:
   Stefan Grimme, W. Hujo, H. Kruse, P. Pracht,  : VdW corrections, initial TS optimization,
                  C. Bannwarth, S. Ehlert          DFT functionals, gCP, sTDA/sTD-DF
   Ed Valeev, F. Pavosevic, A. Kumar             : LibInt (2-el integral package), F12 methods
   Garnet Chan, S. Sharma, J. Yang, R. Olivares  : DMRG
   Ulf Ekstrom                                   : XCFun DFT Library
   Mihaly Kallay                                 : mrcc  (arbitrary order and MRCC methods)
   Jiri Pittner, Ondrej Demel                    : Mk-CCSD
   Frank Weinhold                                : gennbo (NPA and NBO analysis)
   Christopher J. Cramer and Donald G. Truhlar   : smd solvation model
   Lars Goerigk                                  : TD-DFT with DH, B97 family of functionals
   V. Asgeirsson, H. Jonsson                     : NEB implementation
   FAccTs GmbH                                   : IRC, NEB, NEB-TS, DLPNO-Multilevel, CI-OPT
                                                   MM, QMMM, 2- and 3-layer-ONIOM, Crystal-QMMM,
                                                   LR-CPCM, SF, NACMEs, symmetry and pop. for TD-DFT,
                                                   nearIR, NL-DFT gradient (VV10), updates on ESD,
                                                   ML-optimized integration grids
   S Lehtola, MJT Oliveira, MAL Marques          : LibXC Library
   Liviu Ungur et al                             : ANISO software


 Your calculation uses the libint2 library for the computation of 2-el integrals
 For citations please refer to: http://libint.valeyev.net

 Your ORCA version has been built with support for libXC version: 5.1.0
 For citations please refer to: https://tddft.org/programs/libxc/

 This ORCA versions uses:
   CBLAS   interface :  Fast vector & matrix operations
   LAPACKE interface :  Fast linear algebra routines
   SCALAPACK package :  Parallel linear algebra routines
   Shared memory     :  Shared parallel matrices
   BLAS/LAPACK       :  OpenBLAS 0.3.15  USE64BITINT DYNAMIC_ARCH NO_AFFINITY Barcelona SINGLE_THREADED
        Core in use  :  Barcelona
   Copyright (c) 2011-2014, The OpenBLAS Project




***************************************
The coordinates will be read from file: start.xyz
***************************************


Your calculation utilizes the atom-pairwise dispersion correction
with the Becke-Johnson damping scheme (D3BJ)
Cite in your paper:
S.Grimme, S.Ehrlich, L.Goerigk, J Comput Chem, (2011), 32, 1456–1465 
S.Grimme, J.Antony, S.Ehrlich and H.Krieg, J.Chem.Phys., 132, (2010), 154104 
   

================================================================================

----- Orbital basis set information -----
Your calculation utilizes the basis: pc-3
   H, C-F              : F. Jensen, J. Chem. Phys. 115, 9113 (2001).
                         F. Jensen, J. Chem. Phys. 116, 7372 (2002).
                         F. Jensen, J. Chem. Phys. 117, 9234 (2002).
   Si-Cl               : F. Jensen, T. Helgaker, J. Chem. Phys. 121, 3463 (2004).
   He-B, Ne-Mg, Al, Ar : F. Jensen, J. Phys. Chem. A 111, 11198 (2007).
   K, Ca, Ga-Kr        : F. Jensen, J. Chem. Phys. 136, 094110 (2012).
   Sc-Zn               : F. Jensen, J. Chem. Phys. 138, 014107 (2013).

----- AuxJ basis set information -----
Your calculation utilizes the AutoAux generation procedure.
  G. L. Stoychev, A. A. Auer, F. Neese, J. Chem. Theory Comput. 13, 554 (2017)

----- AuxC basis set information -----
Your calculation utilizes the AutoAux generation procedure.
  G. L. Stoychev, A. A. Auer, F. Neese, J. Chem. Theory Comput. 13, 554 (2017)

----- AuxJK basis set information -----
Your calculation utilizes the AutoAux generation procedure.
  G. L. Stoychev, A. A. Auer, F. Neese, J. Chem. Theory Comput. 13, 554 (2017)

================================================================================
                                        WARNINGS
                       Please study these warnings very carefully!
================================================================================


INFO   : the flag for use of the SHARK integral package has been found!

================================================================================
                                       INPUT FILE
================================================================================
NAME = run.inp
|  1> # Geometry optimization for (AlH3)n cluster
|  2> 
|  3> ! PBE 	# functional used for the MOF calculations later (non-expensive)
|  4> ! RKS	# closed shell for AlH3
|  5> ! D3BJ  # better geometries at low cost
|  6> ! pc-3 	# proven basiset from earlier work
|  7> ! Freq 	# Frequency analysis to check the stabiltity of the structures
|  8> 
|  9> 
| 10> ! NoPop # population analysis not necessary	
| 11> 
| 12> ! RI 		# speed up calculation 
| 13> ! AutoAux # no auxiliary basis set for pc implemented
| 14> ! DEFGRID3 # dense integration grid in space
| 15> ! TightSCF # 
| 16> ! TightOpt # thight convergence criteria for geometry optimizations
| 17> 
| 18> ! SmallPrint
| 19> 
| 20> ! MOread
| 21> % moinp "start.gbw" # wfc from the preoptimisation (looseCalc/run.gbw)
| 22> 
| 23> * xyzFile 0 1 start.xyz # Geometry from the preoptimisation (looseCalc2/run.xyz)
| 24> # only maingroup elements H and Al so there should be no net spin
| 25> 
| 26>                          ****END OF INPUT****
================================================================================

                       *****************************
                       * Geometry Optimization Run *
                       *****************************

Geometry optimization settings:
Update method            Update   .... BFGS
Choice of coordinates    CoordSys .... Z-matrix Internals
Initial Hessian          InHess   .... Almoef's Model

Convergence Tolerances:
Energy Change            TolE     ....  1.0000e-06 Eh
Max. Gradient            TolMAXG  ....  1.0000e-04 Eh/bohr
RMS Gradient             TolRMSG  ....  3.0000e-05 Eh/bohr
Max. Displacement        TolMAXD  ....  1.0000e-03 bohr
RMS Displacement         TolRMSD  ....  6.0000e-04 bohr
Strict Convergence                ....  False
------------------------------------------------------------------------------
                        ORCA OPTIMIZATION COORDINATE SETUP
------------------------------------------------------------------------------

The optimization will be done in new redundant internal coordinates
Making redundant internal coordinates   ...  (new redundants) done
Evaluating the initial hessian          ...  (Almloef) done
Evaluating the coordinates              ...  done
Calculating the B-matrix                .... done
Calculating the G-matrix                .... done
Diagonalizing the G-matrix              .... done
The first mode is                       ....  986
The number of degrees of freedom        ....   90

    -----------------------------------------------------------------
                    Redundant Internal Coordinates


    -----------------------------------------------------------------
         Definition                    Initial Value    Approx d2E/dq
    -----------------------------------------------------------------
      1. B(Al  1,Al  0)                  3.2222         0.036621   
      2. B(Al  2,Al  1)                  2.6789         0.269537   
      3. B(Al  3,Al  0)                  2.6533         0.296037   
      4. B(Al  4,Al  1)                  3.2345         0.035004   
      5. B(Al  5,Al  3)                  3.1931         0.040754   
      6. B(Al  5,Al  4)                  2.9515         0.098986   
      7. B(Al  6,Al  3)                  3.1399         0.049556   
      8. B(Al  6,Al  5)                  3.1779         0.043093   
      9. B(Al  6,Al  4)                  3.1200         0.053305   
     10. B(Al  7,Al  2)                  3.0752         0.062844   
     11. B(Al  7,Al  1)                  2.9965         0.083917   
     12. B(Al  7,Al  0)                  3.3319         0.024479   
     13. B(H   8,Al  5)                  1.7473         0.225595   
     14. B(H   8,Al  4)                  1.7044         0.264056   
     15. B(H   9,Al  1)                  1.8991         0.129168   
     16. B(H   9,Al  2)                  1.6848         0.283865   
     17. B(H  10,Al  1)                  1.8828         0.137132   
     18. B(H  10,Al  0)                  1.6836         0.285059   
     19. B(H  11,Al  6)                  1.6524         0.319720   
     20. B(H  11,Al  5)                  1.8808         0.138156   
     21. B(H  12,Al  6)                  1.6492         0.323483   
     22. B(H  12,Al  4)                  1.8990         0.129189   
     23. B(H  13,Al  5)                  1.5827         0.412951   
     24. B(H  14,Al  4)                  1.5824         0.413496   
     25. B(H  15,Al  7)                  1.6563         0.315151   
     26. B(H  15,Al  1)                  1.8064         0.181598   
     27. B(H  16,Al  7)                  1.5866         0.407117   
     28. B(H  17,Al  7)                  1.6643         0.306026   
     29. B(H  17,Al  2)                  1.8718         0.142788   
     30. B(H  18,Al  7)                  1.6481         0.324761   
     31. B(H  18,Al  0)                  1.9089         0.124615   
     32. B(H  19,Al  4)                  1.6474         0.325623   
     33. B(H  19,Al  3)                  1.8666         0.145554   
     34. B(H  20,Al  5)                  1.6735         0.295801   
     35. B(H  20,Al  3)                  1.8271         0.168288   
     36. B(H  21,Al  2)                  1.7022         0.266258   
     37. B(H  21,Al  1)                  1.7716         0.206301   
     38. B(H  22,Al  3)                  1.7316         0.238997   
     39. B(H  22,Al  0)                  1.8264         0.168695   
     40. B(H  23,Al  4)                  1.7111         0.257702   
     41. B(H  23,Al  1)                  1.7184         0.250899   
     42. B(H  24,Al  5)                  1.7362         0.234941   
     43. B(H  24,Al  2)                  1.7582         0.216719   
     44. B(H  25,Al  3)                  1.5906         0.401137   
     45. B(H  26,Al  0)                  1.5837         0.411500   
     46. B(H  27,Al  2)                  1.5861         0.407912   
     47. B(H  28,Al  6)                  1.5842         0.410644   
     48. B(H  29,Al  6)                  1.6623         0.308222   
     49. B(H  29,Al  3)                  1.8072         0.181015   
     50. B(H  30,Al  1)                  1.5878         0.405307   
     51. B(H  31,Al  3)                  1.7883         0.194057   
     52. B(H  31,Al  0)                  1.6814         0.287337   
     53. A(H  10,Al  0,H  22)           96.0670         0.313932   
     54. A(Al  7,Al  0,H  22)          157.8944         0.246411   
     55. A(H  22,Al  0,H  31)           81.8234         0.314338   
     56. A(H  18,Al  0,H  31)           79.4335         0.299409   
     57. A(Al  7,Al  0,H  26)          103.9740         0.281615   
     58. A(Al  1,Al  0,H  31)           86.8590         0.283528   
     59. A(Al  1,Al  0,H  18)           73.1187         0.250013   
     60. A(Al  3,Al  0,H  31)           41.6297         0.401182   
     61. A(Al  1,Al  0,Al  7)           54.3814         0.224889   
     62. A(H  10,Al  0,H  18)           92.8202         0.299030   
     63. A(Al  3,Al  0,H  10)          102.9079         0.400621   
     64. A(Al  1,Al  0,H  26)          138.4777         0.300002   
     65. A(Al  3,Al  0,Al  7)          121.3527         0.307077   
     66. A(Al  3,Al  0,H  22)           40.4311         0.365732   
     67. A(Al  1,Al  0,H  10)           26.9430         0.283178   
     68. A(Al  1,Al  0,H  22)          108.9625         0.261438   
     69. A(Al  7,Al  0,H  31)           82.7143         0.266577   
     70. A(H  18,Al  0,H  22)          161.0081         0.275515   
     71. A(Al  3,Al  0,H  18)          121.0340         0.347398   
     72. A(H  22,Al  0,H  26)           98.0207         0.333421   
     73. A(H  10,Al  0,H  26)          122.0971         0.364236   
     74. A(H  10,Al  0,H  31)          108.7188         0.342747   
     75. A(H  18,Al  0,H  26)           91.3566         0.317227   
     76. A(Al  7,Al  0,H  18)           18.9771         0.235982   
     77. A(Al  7,Al  0,H  10)           74.1455         0.266257   
     78. A(Al  3,Al  0,H  26)          123.2543         0.427620   
     79. A(Al  1,Al  0,Al  3)           97.1877         0.327895   
     80. A(H  26,Al  0,H  31)          128.7647         0.364732   
     81. A(H   9,Al  1,H  21)           77.2637         0.285800   
     82. A(Al  7,Al  1,H  21)           56.5265         0.306732   
     83. A(Al  4,Al  1,H  21)           82.8118         0.267639   
     84. A(Al  4,Al  1,H   9)          101.5312         0.249676   
     85. A(H  10,Al  1,H  21)           77.1915         0.288483   
     86. A(Al  4,Al  1,Al  7)          137.1925         0.266766   
     87. A(Al  7,Al  1,H  15)           28.6662         0.300536   
     88. A(Al  2,Al  1,H  15)           85.5732         0.364477   
     89. A(Al  2,Al  1,H  21)           38.6058         0.372545   
     90. A(H   9,Al  1,H  10)          154.4273         0.268424   
     91. A(H  15,Al  1,H  23)          168.8995         0.311203   
     92. A(Al  0,Al  1,H  30)          122.3383         0.299279   
     93. A(Al  2,Al  1,Al  4)           92.1239         0.320499   
     94. A(Al  0,Al  1,Al  4)           81.6278         0.236347   
     95. A(Al  0,Al  1,Al  7)           64.6746         0.268592   
     96. A(H  10,Al  1,H  23)           95.7530         0.297518   
     97. A(Al  2,Al  1,H  10)          115.7971         0.347511   
     98. A(Al  7,Al  1,H  30)          118.3468         0.342690   
     99. A(H  10,Al  1,H  30)          100.0310         0.321426   
    100. A(Al  7,Al  1,H  10)           81.5757         0.287508   
    101. A(H  23,Al  1,H  30)           98.6307         0.355482   
    102. A(Al  0,Al  1,H  10)           23.9017         0.253540   
    103. A(H  21,Al  1,H  30)          174.2913         0.343935   
    104. A(Al  7,Al  1,H  23)          142.8905         0.316594   
    105. A(Al  0,Al  1,H  23)           99.2355         0.277648   
    106. A(H   9,Al  1,H  15)           86.9992         0.280200   
    107. A(Al  0,Al  1,H  15)           81.9030         0.264338   
    108. A(H  21,Al  1,H  23)           86.6621         0.317711   
    109. A(Al  4,Al  1,H  30)          101.4793         0.297140   
    110. A(H  15,Al  1,H  21)           85.0997         0.301575   
    111. A(H   9,Al  1,H  23)           83.9344         0.294713   
    112. A(Al  2,Al  1,H  23)           83.3468         0.385388   
    113. A(Al  2,Al  1,Al  7)           65.3403         0.371160   
    114. A(Al  4,Al  1,H  15)          163.2492         0.262555   
    115. A(H  10,Al  1,H  15)           89.6653         0.282806   
    116. A(H  15,Al  1,H  30)           89.9209         0.336681   
    117. A(Al  7,Al  1,H   9)           83.4276         0.284838   
    118. A(Al  2,Al  1,H  30)          143.8135         0.419372   
    119. A(H   9,Al  1,H  30)          105.3073         0.318300   
    120. A(Al  2,Al  1,H   9)           38.6666         0.344034   
    121. A(Al  4,Al  1,H  10)           76.3876         0.251866   
    122. A(Al  0,Al  1,H  21)           54.1951         0.269474   
    123. A(Al  0,Al  1,H   9)          130.8080         0.251327   
    124. A(Al  4,Al  1,H  23)           19.3683         0.275730   
    125. A(Al  0,Al  1,Al  2)           92.5579         0.322877   
    126. A(Al  1,Al  2,H  27)          165.6552         0.419851   
    127. A(H  24,Al  2,H  27)           97.0867         0.347168   
    128. A(H  21,Al  2,H  27)          151.8809         0.359481   
    129. A(Al  7,Al  2,H  24)          135.4567         0.295224   
    130. A(H  17,Al  2,H  27)           88.5583         0.323903   
    131. A(H   9,Al  2,H  27)          121.8883         0.363430   
    132. A(Al  7,Al  2,H  27)          116.2467         0.326962   
    133. A(H   9,Al  2,H  17)           98.2419         0.305397   
    134. A(Al  1,Al  2,H  17)           88.7325         0.349887   
    135. A(H  21,Al  2,H  24)           82.1296         0.323406   
    136. A(H  17,Al  2,H  24)          150.5632         0.292573   
    137. A(H   9,Al  2,H  24)          103.0243         0.326829   
    138. A(Al  1,Al  2,H  24)           92.1703         0.375725   
    139. A(Al  7,Al  2,H   9)           84.3926         0.308215   
    140. A(Al  1,Al  2,H   9)           44.7708         0.393786   
    141. A(Al  1,Al  2,Al  7)           62.3179         0.353284   
    142. A(H  17,Al  2,H  21)           79.5765         0.302283   
    143. A(H   9,Al  2,H  21)           85.2584         0.338172   
    144. A(Al  7,Al  2,H  21)           54.4109         0.305060   
    145. A(Al  1,Al  2,H  21)           40.4976         0.389401   
    146. A(Al  7,Al  2,H  17)           27.7246         0.276640   
    147. A(Al  0,Al  3,H  31)           38.6545         0.374645   
    148. A(Al  5,Al  3,H  20)           23.0899         0.265566   
    149. A(Al  0,Al  3,H  20)          114.9617         0.365580   
    150. A(Al  6,Al  3,H  20)           74.8426         0.273556   
    151. A(Al  6,Al  3,H  19)           64.7919         0.267592   
    152. A(Al  0,Al  3,H  19)           76.8455         0.356643   
    153. A(H  25,Al  3,H  29)           93.8177         0.335922   
    154. A(H  22,Al  3,H  29)           97.1919         0.308612   
    155. A(Al  6,Al  3,H  29)           24.0781         0.276626   
    156. A(H  20,Al  3,H  29)           95.1297         0.291850   
    157. A(H  19,Al  3,H  29)           80.3949         0.285295   
    158. A(Al  6,Al  3,H  31)          146.8009         0.279604   
    159. A(Al  5,Al  3,H  31)           89.4078         0.271352   
    160. A(H  22,Al  3,H  25)          108.2824         0.351950   
    161. A(H  19,Al  3,H  25)          173.5290         0.324032   
    162. A(Al  5,Al  3,H  19)           58.9088         0.259860   
    163. A(Al  6,Al  3,H  25)          108.7893         0.313653   
    164. A(Al  5,Al  3,H  25)          117.8555         0.303926   
    165. A(Al  0,Al  3,H  25)          109.5493         0.425670   
    166. A(Al  0,Al  3,Al  5)          112.6346         0.333747   
    167. A(H  29,Al  3,H  31)          169.1915         0.298499   
    168. A(H  19,Al  3,H  31)           88.9221         0.288411   
    169. A(Al  5,Al  3,Al  6)           60.2320         0.252314   
    170. A(H  20,Al  3,H  22)          150.8069         0.305018   
    171. A(H  19,Al  3,H  22)           75.5302         0.298038   
    172. A(Al  6,Al  3,H  22)          108.8608         0.288806   
    173. A(Al  5,Al  3,H  22)          133.7195         0.280155   
    174. A(H  19,Al  3,H  20)           80.6048         0.282083   
    175. A(Al  0,Al  3,H  22)           43.1608         0.388434   
    176. A(Al  0,Al  3,Al  6)          138.5384         0.344823   
    177. A(Al  5,Al  3,H  29)           83.6934         0.268503   
    178. A(Al  0,Al  3,H  29)          138.0958         0.370182   
    179. A(H  25,Al  3,H  31)           96.7649         0.339841   
    180. A(H  20,Al  3,H  31)           81.4028         0.295070   
    181. A(H  22,Al  3,H  31)           81.5798         0.312098   
    182. A(H  20,Al  3,H  25)           97.1456         0.331881   
    183. A(H  14,Al  4,H  23)          100.6480         0.358317   
    184. A(H   8,Al  4,H  12)           85.5169         0.297114   
    185. A(Al  6,Al  4,H  12)           26.3262         0.265728   
    186. A(H  14,Al  4,H  19)          134.0727         0.372961   
    187. A(H  12,Al  4,H  19)           86.5343         0.307224   
    188. A(H   8,Al  4,H  19)           97.9364         0.345551   
    189. A(Al  5,Al  4,H  12)           86.0926         0.292304   
    190. A(Al  6,Al  4,H  19)           66.5073         0.306860   
    191. A(Al  5,Al  4,H  19)           66.3493         0.339622   
    192. A(Al  1,Al  4,H  12)          159.5280         0.249682   
    193. A(Al  1,Al  4,H  19)           73.8008         0.287079   
    194. A(Al  6,Al  4,H   8)           72.8113         0.296767   
    195. A(Al  1,Al  4,H   8)          102.4952         0.277902   
    196. A(Al  5,Al  4,H   8)           31.6648         0.328011   
    197. A(Al  1,Al  4,Al  5)           91.0443         0.273537   
    198. A(Al  5,Al  4,Al  6)           63.0506         0.291965   
    199. A(H  19,Al  4,H  23)           88.8702         0.344141   
    200. A(Al  1,Al  4,Al  6)          138.6321         0.249413   
    201. A(H  12,Al  4,H  23)          171.8547         0.295970   
    202. A(H   8,Al  4,H  23)           88.4647         0.332320   
    203. A(Al  6,Al  4,H  23)          145.8028         0.295625   
    204. A(Al  5,Al  4,H  23)           85.9042         0.326697   
    205. A(Al  1,Al  4,H  23)           19.4541         0.276864   
    206. A(H  12,Al  4,H  14)           87.3662         0.319349   
    207. A(H   8,Al  4,H  14)          126.8561         0.359806   
    208. A(Al  6,Al  4,H  14)          113.5070         0.318965   
    209. A(Al  5,Al  4,H  14)          158.0552         0.353547   
    210. A(Al  1,Al  4,H  14)          102.0993         0.298085   
    211. A(H   8,Al  5,H  20)          123.6218         0.331247   
    212. A(Al  6,Al  5,H  20)           75.2792         0.292156   
    213. A(Al  4,Al  5,H  20)           93.1300         0.334232   
    214. A(Al  3,Al  5,H  20)           25.3504         0.289607   
    215. A(Al  6,Al  5,H   8)           70.7817         0.280072   
    216. A(Al  4,Al  5,H   8)           30.8022         0.319645   
    217. A(Al  3,Al  5,Al  4)           68.3947         0.280000   
    218. A(Al  3,Al  5,H   8)           98.4586         0.277675   
    219. A(Al  4,Al  5,Al  6)           61.0649         0.282427   
    220. A(H   8,Al  5,H  11)           82.3729         0.292903   
    221. A(Al  6,Al  5,H  11)           24.1682         0.260000   
    222. A(Al  4,Al  5,H  11)           82.0631         0.295416   
    223. A(Al  3,Al  5,H  11)           76.2706         0.257855   
    224. A(Al  3,Al  5,Al  6)           59.0538         0.247229   
    225. A(H  20,Al  5,H  24)           94.1825         0.333483   
    226. A(H  13,Al  5,H  24)          103.0447         0.352660   
    227. A(H  11,Al  5,H  24)          164.4002         0.294785   
    228. A(H   8,Al  5,H  24)           85.4917         0.318940   
    229. A(Al  6,Al  5,H  24)          140.8253         0.281836   
    230. A(Al  4,Al  5,H  24)           82.4923         0.321774   
    231. A(Al  3,Al  5,H  24)           95.9552         0.279416   
    232. A(H  11,Al  5,H  13)           90.9133         0.322805   
    233. A(H   8,Al  5,H  13)          114.3674         0.350249   
    234. A(Al  6,Al  5,H  13)          114.9212         0.308092   
    235. A(Al  4,Al  5,H  13)          144.9787         0.353468   
    236. A(Al  3,Al  5,H  13)          142.9291         0.305343   
    237. A(H  13,Al  5,H  20)          120.4319         0.366771   
    238. A(H  11,Al  5,H  20)           84.4877         0.305799   
    239. A(Al  5,Al  6,H  12)           83.0688         0.296312   
    240. A(Al  4,Al  6,H  12)           30.7084         0.306535   
    241. A(Al  3,Al  6,H  12)           92.0724         0.302975   
    242. A(Al  3,Al  6,Al  5)           60.7142         0.254389   
    243. A(Al  5,Al  6,H  11)           27.7755         0.295764   
    244. A(H  28,Al  6,H  29)          114.8328         0.369014   
    245. A(H  12,Al  6,H  29)          101.9717         0.354294   
    246. A(H  11,Al  6,H  29)          102.2035         0.353593   
    247. A(Al  5,Al  6,H  29)           86.3731         0.294057   
    248. A(Al  3,Al  6,H  11)           80.5338         0.302409   
    249. A(Al  4,Al  6,H  29)           85.5435         0.304169   
    250. A(Al  3,Al  6,H  29)           26.3299         0.300647   
    251. A(H  12,Al  6,H  28)          117.7308         0.372094   
    252. A(H  11,Al  6,H  28)          115.9782         0.371345   
    253. A(Al  5,Al  6,H  28)          143.7195         0.307814   
    254. A(Al  4,Al  6,H  28)          148.1880         0.318605   
    255. A(Al  3,Al  6,H  28)          139.3402         0.314847   
    256. A(Al  3,Al  6,Al  4)           67.0929         0.262545   
    257. A(Al  4,Al  6,Al  5)           55.8844         0.257141   
    258. A(H  11,Al  6,H  12)          101.8293         0.356503   
    259. A(Al  4,Al  6,H  11)           80.2337         0.305960   
    260. A(H  17,Al  7,H  18)          110.5905         0.354102   
    261. A(H  16,Al  7,H  18)          114.7440         0.371794   
    262. A(H  15,Al  7,H  18)          101.6379         0.355871   
    263. A(Al  2,Al  7,H  18)           94.9504         0.314995   
    264. A(Al  1,Al  7,H  18)           82.7814         0.330282   
    265. A(Al  0,Al  7,H  18)           22.1256         0.271566   
    266. A(Al  1,Al  7,Al  2)           52.3418         0.291941   
    267. A(Al  0,Al  7,Al  2)           83.7559         0.242556   
    268. A(H  16,Al  7,H  17)          114.0566         0.368016   
    269. A(H  15,Al  7,H  17)           99.2620         0.352306   
    270. A(Al  2,Al  7,H  17)           31.5490         0.311976   
    271. A(Al  1,Al  7,H  17)           82.5645         0.327059   
    272. A(Al  0,Al  7,H  17)          108.2762         0.269127   
    273. A(Al  0,Al  7,Al  1)           60.9440         0.252942   
    274. A(H  15,Al  7,H  16)          114.8851         0.369878   
    275. A(Al  2,Al  7,H  16)          143.9304         0.326857   
    276. A(Al  1,Al  7,H  16)          146.4228         0.342946   
    277. A(Al  0,Al  7,H  16)          130.8799         0.281148   
    278. A(Al  2,Al  7,H  15)           75.7472         0.313464   
    279. A(Al  1,Al  7,H  15)           31.5449         0.328647   
    280. A(Al  0,Al  7,H  15)           80.4103         0.270329   
    281. A(Al  4,H   8,Al  5)          117.5330         0.325102   
    282. A(Al  1,H   9,Al  2)           96.5625         0.300542   
    283. A(Al  0,H  10,Al  1)          129.1553         0.303630   
    284. A(Al  5,H  11,Al  6)          128.0563         0.309648   
    285. A(Al  4,H  12,Al  6)          122.9655         0.306899   
    286. A(Al  1,H  15,Al  7)          119.7888         0.322971   
    287. A(Al  2,H  17,Al  7)          120.7265         0.309110   
    288. A(Al  0,H  18,Al  7)          138.8973         0.305321   
    289. A(Al  3,H  19,Al  4)          159.7256         0.313195   
    290. A(Al  3,H  20,Al  5)          131.5596         0.315700   
    291. A(Al  1,H  21,Al  2)          100.8966         0.320807   
    292. A(Al  0,H  22,Al  3)           96.4081         0.305136   
    293. A(Al  1,H  23,Al  4)          141.1776         0.329522   
    294. A(Al  2,H  24,Al  5)          160.9099         0.316861   
    295. A(Al  3,H  29,Al  6)          129.5920         0.321627   
    296. A(Al  0,H  31,Al  3)           99.7158         0.321596   
    297. D(Al  2,Al  1,Al  0,H  26)    129.9429         0.001503   
    298. D(Al  7,Al  1,Al  0,H  18)     -3.3797         0.001503   
    299. D(Al  2,Al  1,Al  0,Al  7)     61.1059         0.001503   
    300. D(Al  4,Al  1,Al  0,H  26)   -138.2851         0.001503   
    301. D(H   9,Al  1,Al  0,H  31)    -28.4483         0.001503   
    302. D(H  10,Al  1,Al  0,H  26)    -63.0614         0.001503   
    303. D(H  10,Al  1,Al  0,Al  3)    104.4065         0.001503   
    304. D(H  30,Al  1,Al  0,H  10)     23.1082         0.001503   
    305. D(H  23,Al  1,Al  0,H  10)    -83.3244         0.001503   
    306. D(H   9,Al  1,Al  0,H  18)     51.4574         0.001503   
    307. D(Al  7,Al  1,Al  0,H  22)   -163.5285         0.001503   
    308. D(H  21,Al  1,Al  0,H  10)   -162.3700         0.001503   
    309. D(Al  7,Al  1,Al  0,H  31)    -83.2854         0.001503   
    310. D(H  21,Al  1,Al  0,H  18)     62.3518         0.001503   
    311. D(H  30,Al  1,Al  0,H  22)     87.6812         0.001503   
    312. D(H   9,Al  1,Al  0,H  26)    123.6741         0.001503   
    313. D(H   9,Al  1,Al  0,H  10)   -173.2645         0.001503   
    314. D(H  23,Al  1,Al  0,H  22)    -18.7514         0.001503   
    315. D(H  10,Al  1,Al  0,Al  7)   -131.8985         0.001503   
    316. D(Al  4,Al  1,Al  0,H  10)    -75.2237         0.001503   
    317. D(H  15,Al  1,Al  0,H  18)    -27.4325         0.001503   
    318. D(H  23,Al  1,Al  0,H  31)     61.4917         0.001503   
    319. D(Al  4,Al  1,Al  0,Al  3)     29.1828         0.001503   
    320. D(H  15,Al  1,Al  0,Al  3)   -147.7479         0.001503   
    321. D(H  15,Al  1,Al  0,H  22)    172.4186         0.001503   
    322. D(H  15,Al  1,Al  0,H  10)    107.8456         0.001503   
    323. D(H  15,Al  1,Al  0,H  31)   -107.3382         0.001503   
    324. D(Al  7,Al  1,Al  0,H  10)    131.8985         0.001503   
    325. D(Al  4,Al  1,Al  0,H  31)     69.5925         0.001503   
    326. D(Al  7,Al  1,Al  0,Al  3)   -123.6951         0.001503   
    327. D(Al  7,Al  1,Al  0,H  26)     68.8370         0.001503   
    328. D(H  30,Al  1,Al  0,H  18)   -112.1700         0.001503   
    329. D(H  21,Al  1,Al  0,H  26)    134.5686         0.001503   
    330. D(H  21,Al  1,Al  0,H  22)    -97.7970         0.001503   
    331. D(H  15,Al  1,Al  0,Al  7)    -24.0528         0.001503   
    332. D(H  23,Al  1,Al  0,H  26)   -146.3858         0.001503   
    333. D(Al  4,Al  1,Al  0,Al  7)    152.8778         0.001503   
    334. D(Al  4,Al  1,Al  0,H  18)    149.4981         0.001503   
    335. D(H  21,Al  1,Al  0,H  31)    -17.5539         0.001503   
    336. D(H  30,Al  1,Al  0,Al  7)   -108.7903         0.001503   
    337. D(H   9,Al  1,Al  0,H  22)   -108.6915         0.001503   
    338. D(H  23,Al  1,Al  0,Al  3)     21.0820         0.001503   
    339. D(Al  2,Al  1,Al  0,Al  3)    -62.5892         0.001503   
    340. D(Al  2,Al  1,Al  0,H  10)   -166.9956         0.001503   
    341. D(H  23,Al  1,Al  0,Al  7)    144.7771         0.001503   
    342. D(H  21,Al  1,Al  0,Al  7)     65.7315         0.001503   
    343. D(Al  2,Al  1,Al  0,H  22)   -102.4226         0.001503   
    344. D(H  30,Al  1,Al  0,Al  3)    127.5146         0.001503   
    345. D(H  15,Al  1,Al  0,H  26)     44.7842         0.001503   
    346. D(H  23,Al  1,Al  0,H  18)    141.3974         0.001503   
    347. D(H  10,Al  1,Al  0,H  31)    144.8162         0.001503   
    348. D(H   9,Al  1,Al  0,Al  7)     54.8371         0.001503   
    349. D(Al  2,Al  1,Al  0,H  18)     57.7262         0.001503   
    350. D(H  21,Al  1,Al  0,Al  3)    -57.9636         0.001503   
    351. D(H  30,Al  1,Al  0,H  26)    -39.9532         0.001503   
    352. D(H   9,Al  1,Al  0,Al  3)    -68.8580         0.001503   
    353. D(H  10,Al  1,Al  0,H  18)   -135.2782         0.001503   
    354. D(H  30,Al  1,Al  0,H  31)    167.9244         0.001503   
    355. D(H  10,Al  1,Al  0,H  22)     64.5730         0.001503   
    356. D(Al  2,Al  1,Al  0,H  31)    -22.1795         0.001503   
    357. D(Al  4,Al  1,Al  0,H  22)    -10.6507         0.001503   
    358. D(Al  7,Al  2,Al  1,Al  4)   -142.2595         0.001620   
    359. D(Al  7,Al  2,Al  1,Al  0)    -60.5500         0.001620   
    360. D(H  17,Al  2,Al  1,Al  7)     -8.7926         0.001620   
    361. D(H  27,Al  2,Al  1,H  10)   -154.3132         0.001620   
    362. D(H  17,Al  2,Al  1,H  15)     12.3277         0.001620   
    363. D(H  27,Al  2,Al  1,H  21)   -154.5181         0.001620   
    364. D(H  27,Al  2,Al  1,Al  7)    -87.9511         0.001620   
    365. D(H  17,Al  2,Al  1,H  23)   -168.3482         0.001620   
    366. D(H  27,Al  2,Al  1,H  30)     16.9591         0.001620   
    367. D(H  21,Al  2,Al  1,H   9)    178.4153         0.001620   
    368. D(H  27,Al  2,Al  1,Al  0)   -148.5012         0.001620   
    369. D(H  21,Al  2,Al  1,H  30)    171.4772         0.001620   
    370. D(H  24,Al  2,Al  1,H  23)    -17.7850         0.001620   
    371. D(H  24,Al  2,Al  1,H  15)    162.8909         0.001620   
    372. D(H  24,Al  2,Al  1,Al  7)    141.7706         0.001620   
    373. D(H  24,Al  2,Al  1,Al  4)     -0.4889         0.001620   
    374. D(H  24,Al  2,Al  1,H  10)     75.4086         0.001620   
    375. D(H  24,Al  2,Al  1,Al  0)     81.2206         0.001620   
    376. D(H  21,Al  2,Al  1,H  23)    -92.9887         0.001620   
    377. D(H  27,Al  2,Al  1,Al  4)    129.7893         0.001620   
    378. D(H  24,Al  2,Al  1,H   9)   -106.3810         0.001620   
    379. D(H  21,Al  2,Al  1,Al  4)    -75.6926         0.001620   
    380. D(H  27,Al  2,Al  1,H   9)     23.8973         0.001620   
    381. D(H  27,Al  2,Al  1,H  15)    -66.8309         0.001620   
    382. D(H  17,Al  2,Al  1,Al  4)   -151.0521         0.001620   
    383. D(H  17,Al  2,Al  1,H  30)     96.1177         0.001620   
    384. D(H  21,Al  2,Al  1,Al  7)     66.5669         0.001620   
    385. D(H  24,Al  2,Al  1,H  30)   -113.3191         0.001620   
    386. D(H  21,Al  2,Al  1,H  15)     87.6871         0.001620   
    387. D(H  17,Al  2,Al  1,H  21)    -75.3595         0.001620   
    388. D(H  24,Al  2,Al  1,H  21)     75.2037         0.001620   
    389. D(H   9,Al  2,Al  1,H  10)   -178.2105         0.001620   
    390. D(H  17,Al  2,Al  1,H   9)    103.0558         0.001620   
    391. D(H  21,Al  2,Al  1,Al  0)      6.0169         0.001620   
    392. D(H   9,Al  2,Al  1,H  30)     -6.9381         0.001620   
    393. D(Al  7,Al  2,Al  1,H  23)   -159.5556         0.001620   
    394. D(H   9,Al  2,Al  1,Al  0)   -172.3985         0.001620   
    395. D(H   9,Al  2,Al  1,H  15)    -90.7282         0.001620   
    396. D(H   9,Al  2,Al  1,H  21)   -178.4153         0.001620   
    397. D(H   9,Al  2,Al  1,H  23)     88.5960         0.001620   
    398. D(H   9,Al  2,Al  1,Al  4)    105.8921         0.001620   
    399. D(Al  7,Al  2,Al  1,H  15)     21.1202         0.001620   
    400. D(Al  7,Al  2,Al  1,H  21)    -66.5669         0.001620   
    401. D(Al  7,Al  2,Al  1,H  10)    -66.3621         0.001620   
    402. D(Al  7,Al  2,Al  1,H  30)    104.9103         0.001620   
    403. D(H  21,Al  2,Al  1,H  10)      0.2048         0.001620   
    404. D(H  27,Al  2,Al  1,H  23)    112.4932         0.001620   
    405. D(H   9,Al  2,Al  1,Al  7)   -111.8484         0.001620   
    406. D(H  17,Al  2,Al  1,H  10)    -75.1546         0.001620   
    407. D(Al  7,Al  2,Al  1,H   9)    111.8484         0.001620   
    408. D(H  17,Al  2,Al  1,Al  0)    -69.3426         0.001620   
    409. D(Al  5,Al  3,Al  0,H  18)    -54.9638         0.001643   
    410. D(Al  5,Al  3,Al  0,H  22)    130.5437         0.001643   
    411. D(Al  6,Al  3,Al  0,H  10)    -23.7073         0.001643   
    412. D(Al  5,Al  3,Al  0,H  26)   -170.2775         0.001643   
    413. D(Al  6,Al  3,Al  0,Al  1)    -50.4660         0.001643   
    414. D(Al  5,Al  3,Al  0,H  31)    -57.3683         0.001643   
    415. D(Al  6,Al  3,Al  0,H  18)   -125.0570         0.001643   
    416. D(Al  6,Al  3,Al  0,H  26)    119.6293         0.001643   
    417. D(Al  6,Al  3,Al  0,Al  7)   -102.8379         0.001643   
    418. D(Al  6,Al  3,Al  0,H  22)     60.4505         0.001643   
    419. D(H  19,Al  3,Al  0,Al  1)    -28.1496         0.001643   
    420. D(Al  5,Al  3,Al  0,H  10)     46.3859         0.001643   
    421. D(Al  5,Al  3,Al  0,Al  7)    -32.7447         0.001643   
    422. D(Al  6,Al  3,Al  0,H  31)   -127.4615         0.001643   
    423. D(H  31,Al  3,Al  0,H  26)   -112.9093         0.001643   
    424. D(H  31,Al  3,Al  0,H  22)   -172.0881         0.001643   
    425. D(Al  5,Al  3,Al  0,Al  1)     19.6272         0.001643   
    426. D(H  31,Al  3,Al  0,Al  1)     76.9955         0.001643   
    427. D(H  31,Al  3,Al  0,H  10)    103.7542         0.001643   
    428. D(H  29,Al  3,Al  0,H  31)   -164.0140         0.001643   
    429. D(H  31,Al  3,Al  0,H  18)      2.4045         0.001643   
    430. D(H  20,Al  3,Al  0,H  26)   -145.1343         0.001643   
    431. D(H  25,Al  3,Al  0,H  31)     75.8880         0.001643   
    432. D(H  25,Al  3,Al  0,H  26)    -37.0213         0.001643   
    433. D(H  20,Al  3,Al  0,H  22)    155.6869         0.001643   
    434. D(H  25,Al  3,Al  0,H  18)     78.2924         0.001643   
    435. D(H  22,Al  3,Al  0,H  10)    -84.1578         0.001643   
    436. D(H  22,Al  3,Al  0,H  31)    172.0881         0.001643   
    437. D(H  22,Al  3,Al  0,H  26)     59.1788         0.001643   
    438. D(H  22,Al  3,Al  0,H  18)    174.4925         0.001643   
    439. D(H  19,Al  3,Al  0,H  22)     82.7669         0.001643   
    440. D(H  25,Al  3,Al  0,H  22)    -96.2001         0.001643   
    441. D(H  22,Al  3,Al  0,Al  1)   -110.9165         0.001643   
    442. D(H  25,Al  3,Al  0,H  10)    179.6421         0.001643   
    443. D(H  20,Al  3,Al  0,Al  1)     44.7705         0.001643   
    444. D(H  29,Al  3,Al  0,Al  1)    -87.0186         0.001643   
    445. D(H  29,Al  3,Al  0,H  18)   -161.6096         0.001643   
    446. D(H  20,Al  3,Al  0,Al  7)     -7.6014         0.001643   
    447. D(H  20,Al  3,Al  0,H  10)     71.5292         0.001643   
    448. D(H  20,Al  3,Al  0,H  31)    -32.2250         0.001643   
    449. D(H  25,Al  3,Al  0,Al  7)    100.5116         0.001643   
    450. D(H  20,Al  3,Al  0,H  18)    -29.8205         0.001643   
    451. D(H  29,Al  3,Al  0,H  22)     23.8979         0.001643   
    452. D(H  29,Al  3,Al  0,H  10)    -60.2599         0.001643   
    453. D(H  19,Al  3,Al  0,H  31)   -105.1450         0.001643   
    454. D(H  19,Al  3,Al  0,H  26)    141.9457         0.001643   
    455. D(H  29,Al  3,Al  0,H  26)     83.0767         0.001643   
    456. D(H  29,Al  3,Al  0,Al  7)   -139.3904         0.001643   
    457. D(H  22,Al  3,Al  0,Al  7)   -163.2883         0.001643   
    458. D(H  19,Al  3,Al  0,H  18)   -102.7406         0.001643   
    459. D(H  31,Al  3,Al  0,Al  7)     24.6236         0.001643   
    460. D(H  19,Al  3,Al  0,H  10)     -1.3909         0.001643   
    461. D(H  19,Al  3,Al  0,Al  7)    -80.5214         0.001643   
    462. D(H  25,Al  3,Al  0,Al  1)    152.8834         0.001643   
    463. D(H  23,Al  4,Al  1,H  30)     83.3413         0.001503   
    464. D(Al  5,Al  4,Al  1,Al  7)    -43.3057         0.001503   
    465. D(H  23,Al  4,Al  1,H  10)   -178.9754         0.001503   
    466. D(H  23,Al  4,Al  1,H   9)    -25.1020         0.001503   
    467. D(Al  5,Al  4,Al  1,H  10)   -104.4073         0.001503   
    468. D(H  19,Al  4,Al  1,H  30)   -137.1218         0.001503   
    469. D(Al  5,Al  4,Al  1,H  30)    157.9093         0.001503   
    470. D(H  19,Al  4,Al  1,H  10)    -39.4384         0.001503   
    471. D(Al  6,Al  4,Al  1,H   9)     97.7714         0.001503   
    472. D(H  19,Al  4,Al  1,Al  0)    -15.6668         0.001503   
    473. D(H  19,Al  4,Al  1,Al  7)     21.6632         0.001503   
    474. D(Al  6,Al  4,Al  1,H  15)    -21.7316         0.001503   
    475. D(H  14,Al  4,Al  1,H  21)    171.7888         0.001503   
    476. D(H  14,Al  4,Al  1,H  15)    127.6590         0.001503   
    477. D(H   8,Al  4,Al  1,H   9)     19.6802         0.001503   
    478. D(H  14,Al  4,Al  1,Al  2)   -150.6654         0.001503   
    479. D(H  12,Al  4,Al  1,H  21)     55.6951         0.001503   
    480. D(H   8,Al  4,Al  1,H  21)    -55.6932         0.001503   
    481. D(H  12,Al  4,Al  1,Al  7)     38.2967         0.001503   
    482. D(H  12,Al  4,Al  1,Al  0)      0.9666         0.001503   
    483. D(H  12,Al  4,Al  1,Al  2)     93.2409         0.001503   
    484. D(H   8,Al  4,Al  1,H  30)    128.1234         0.001503   
    485. D(H   8,Al  4,Al  1,H  23)     44.7821         0.001503   
    486. D(H  12,Al  4,Al  1,H  15)     11.5653         0.001503   
    487. D(H   8,Al  4,Al  1,H  15)    -99.8229         0.001503   
    488. D(H   8,Al  4,Al  1,H  10)   -134.1932         0.001503   
    489. D(H   8,Al  4,Al  1,Al  7)    -73.0916         0.001503   
    490. D(H  12,Al  4,Al  1,H  23)    156.1704         0.001503   
    491. D(H  12,Al  4,Al  1,H  10)    -22.8050         0.001503   
    492. D(H  14,Al  4,Al  1,Al  0)    117.0603         0.001503   
    493. D(H   8,Al  4,Al  1,Al  2)    -18.1474         0.001503   
    494. D(H  14,Al  4,Al  1,Al  7)    154.3904         0.001503   
    495. D(Al  6,Al  4,Al  1,H  30)   -153.7853         0.001503   
    496. D(Al  6,Al  4,Al  1,H  23)    122.8734         0.001503   
    497. D(H  12,Al  4,Al  1,H  30)   -120.4883         0.001503   
    498. D(H  12,Al  4,Al  1,H   9)    131.0684         0.001503   
    499. D(H   8,Al  4,Al  1,Al  0)   -110.4216         0.001503   
    500. D(H  14,Al  4,Al  1,H  10)     93.2887         0.001503   
    501. D(H  14,Al  4,Al  1,H  30)     -4.3946         0.001503   
    502. D(Al  6,Al  4,Al  1,H  21)     22.3981         0.001503   
    503. D(Al  6,Al  4,Al  1,H  10)    -56.1020         0.001503   
    504. D(H  14,Al  4,Al  1,H  23)    -87.7359         0.001503   
    505. D(H  19,Al  4,Al  1,Al  2)     76.6075         0.001503   
    506. D(Al  6,Al  4,Al  1,Al  2)     59.9439         0.001503   
    507. D(Al  6,Al  4,Al  1,Al  7)      4.9997         0.001503   
    508. D(Al  6,Al  4,Al  1,Al  0)    -32.3304         0.001503   
    509. D(H  19,Al  4,Al  1,H   9)    114.4350         0.001503   
    510. D(H  14,Al  4,Al  1,H   9)   -112.8379         0.001503   
    511. D(Al  5,Al  4,Al  1,H  23)     74.5680         0.001503   
    512. D(H  19,Al  4,Al  1,H  21)     39.0616         0.001503   
    513. D(Al  5,Al  4,Al  1,H  21)    -25.9073         0.001503   
    514. D(H  23,Al  4,Al  1,Al  0)   -155.2038         0.001503   
    515. D(H  19,Al  4,Al  1,H  23)    139.5369         0.001503   
    516. D(H  19,Al  4,Al  1,H  15)     -5.0681         0.001503   
    517. D(H  23,Al  4,Al  1,Al  7)   -117.8737         0.001503   
    518. D(Al  5,Al  4,Al  1,H   9)     49.4661         0.001503   
    519. D(H  23,Al  4,Al  1,H  15)   -144.6050         0.001503   
    520. D(Al  5,Al  4,Al  1,H  15)    -70.0370         0.001503   
    521. D(Al  5,Al  4,Al  1,Al  0)    -80.6357         0.001503   
    522. D(H  23,Al  4,Al  1,Al  2)    -62.9295         0.001503   
    523. D(Al  5,Al  4,Al  1,Al  2)     11.6385         0.001503   
    524. D(H  23,Al  4,Al  1,H  21)   -100.4753         0.001503   
    525. D(H  11,Al  5,Al  3,H  20)    106.5425         0.001504   
    526. D(H  11,Al  5,Al  3,Al  0)   -152.6312         0.001504   
    527. D(H   8,Al  5,Al  3,H  29)     67.2459         0.001504   
    528. D(H   8,Al  5,Al  3,H  22)    -26.6872         0.001504   
    529. D(Al  6,Al  5,Al  3,Al  0)   -134.1767         0.001504   
    530. D(H   8,Al  5,Al  3,Al  0)    -72.6787         0.001504   
    531. D(Al  6,Al  5,Al  3,H  25)     96.7426         0.001504   
    532. D(Al  6,Al  5,Al  3,H  22)    -88.1852         0.001504   
    533. D(H   8,Al  5,Al  3,Al  6)     61.4980         0.001504   
    534. D(Al  6,Al  5,Al  3,H  20)    124.9970         0.001504   
    535. D(Al  6,Al  5,Al  3,H  19)    -76.8178         0.001504   
    536. D(H   8,Al  5,Al  3,H  19)    -15.3198         0.001504   
    537. D(H   8,Al  5,Al  3,H  20)   -173.5050         0.001504   
    538. D(Al  4,Al  5,Al  3,H  31)    -97.5881         0.001504   
    539. D(Al  6,Al  5,Al  3,H  31)   -165.9161         0.001504   
    540. D(Al  4,Al  5,Al  3,H  29)     74.0759         0.001504   
    541. D(Al  4,Al  5,Al  3,H  25)    165.0706         0.001504   
    542. D(H   8,Al  5,Al  3,H  25)    158.2406         0.001504   
    543. D(Al  4,Al  5,Al  3,H  22)    -19.8572         0.001504   
    544. D(Al  4,Al  5,Al  3,H  20)   -166.6750         0.001504   
    545. D(H   8,Al  5,Al  3,H  31)   -104.4181         0.001504   
    546. D(Al  4,Al  5,Al  3,H  19)     -8.4898         0.001504   
    547. D(Al  4,Al  5,Al  3,Al  6)     68.3280         0.001504   
    548. D(H  11,Al  5,Al  3,H  19)    -95.2723         0.001504   
    549. D(Al  4,Al  5,Al  3,Al  0)    -65.8487         0.001504   
    550. D(H  11,Al  5,Al  3,Al  6)    -18.4545         0.001504   
    551. D(Al  6,Al  5,Al  3,H  29)      5.7479         0.001504   
    552. D(H  24,Al  5,Al  4,H  23)      0.0746         0.001518   
    553. D(H  24,Al  5,Al  4,H  19)    -90.4858         0.001518   
    554. D(H  24,Al  5,Al  4,H  14)    108.6148         0.001518   
    555. D(H  24,Al  5,Al  4,Al  6)   -165.0865         0.001518   
    556. D(H  24,Al  5,Al  4,H   8)     93.7975         0.001518   
    557. D(H  24,Al  5,Al  4,Al  1)    -18.7012         0.001518   
    558. D(H  20,Al  5,Al  4,H  23)     93.8856         0.001518   
    559. D(H  20,Al  5,Al  4,H  19)      3.3253         0.001518   
    560. D(H  20,Al  5,Al  4,H  14)   -157.5742         0.001518   
    561. D(H  20,Al  5,Al  4,H   8)   -172.3914         0.001518   
    562. D(H  20,Al  5,Al  4,Al  6)    -71.2754         0.001518   
    563. D(H  20,Al  5,Al  4,Al  1)     75.1098         0.001518   
    564. D(H  13,Al  5,Al  4,H  23)   -101.9682         0.001518   
    565. D(H  13,Al  5,Al  4,H  14)      6.5720         0.001518   
    566. D(H  13,Al  5,Al  4,H  12)     79.5480         0.001518   
    567. D(H  13,Al  5,Al  4,H  19)    167.4715         0.001518   
    568. D(H  13,Al  5,Al  4,Al  6)     92.8707         0.001518   
    569. D(H  11,Al  5,Al  4,H  23)    177.8725         0.001518   
    570. D(H  11,Al  5,Al  4,H  14)    -73.5873         0.001518   
    571. D(H  11,Al  5,Al  4,H  12)     -0.6113         0.001518   
    572. D(H  11,Al  5,Al  4,H   8)    -88.4046         0.001518   
    573. D(H  13,Al  5,Al  4,Al  1)   -120.7440         0.001518   
    574. D(H  11,Al  5,Al  4,Al  1)    159.0967         0.001518   
    575. D(H   8,Al  5,Al  4,H  19)    175.7167         0.001518   
    576. D(H   8,Al  5,Al  4,H  12)     87.7933         0.001518   
    577. D(H   8,Al  5,Al  4,Al  6)    101.1160         0.001518   
    578. D(H   8,Al  5,Al  4,Al  1)   -112.4988         0.001518   
    579. D(H   8,Al  5,Al  4,H  23)    -93.7229         0.001518   
    580. D(Al  6,Al  5,Al  4,H  19)     74.6007         0.001518   
    581. D(Al  6,Al  5,Al  4,H  12)    -13.3227         0.001518   
    582. D(Al  6,Al  5,Al  4,H  23)    165.1611         0.001518   
    583. D(Al  6,Al  5,Al  4,H   8)   -101.1160         0.001518   
    584. D(Al  6,Al  5,Al  4,Al  1)    146.3853         0.001518   
    585. D(Al  3,Al  5,Al  4,H  23)     99.5572         0.001518   
    586. D(Al  3,Al  5,Al  4,H  19)      8.9969         0.001518   
    587. D(Al  3,Al  5,Al  4,H  12)    -78.9266         0.001518   
    588. D(Al  6,Al  5,Al  4,H  14)    -86.2987         0.001518   
    589. D(Al  3,Al  5,Al  4,Al  6)    -65.6039         0.001518   
    590. D(H  13,Al  5,Al  3,H  20)     33.7701         0.001504   
    591. D(H  24,Al  5,Al  3,H  25)   -115.4510         0.001504   
    592. D(H  20,Al  5,Al  3,Al  6)   -124.9970         0.001504   
    593. D(H  24,Al  5,Al  3,Al  6)    147.8063         0.001504   
    594. D(H   8,Al  5,Al  4,H  14)     14.8172         0.001518   
    595. D(H  24,Al  5,Al  3,H  29)    153.5543         0.001504   
    596. D(H  20,Al  5,Al  3,H  22)    146.8178         0.001504   
    597. D(H  20,Al  5,Al  3,H  29)   -119.2491         0.001504   
    598. D(H  11,Al  5,Al  4,Al  6)     12.7114         0.001518   
    599. D(H  20,Al  5,Al  3,H  25)    -28.2544         0.001504   
    600. D(H  24,Al  5,Al  3,Al  0)     13.6296         0.001504   
    601. D(H  20,Al  5,Al  3,H  19)    158.1852         0.001504   
    602. D(H  11,Al  5,Al  4,H  19)     87.3122         0.001518   
    603. D(H  24,Al  5,Al  3,H  20)    -87.1966         0.001504   
    604. D(H  20,Al  5,Al  3,Al  0)    100.8263         0.001504   
    605. D(H  24,Al  5,Al  3,H  19)     70.9885         0.001504   
    606. D(H  13,Al  5,Al  4,H   8)     -8.2453         0.001518   
    607. D(H  20,Al  5,Al  3,H  31)     69.0869         0.001504   
    608. D(H  13,Al  5,Al  3,H  31)    102.8570         0.001504   
    609. D(H  13,Al  5,Al  3,H  29)    -85.4789         0.001504   
    610. D(H  13,Al  5,Al  3,H  25)      5.5157         0.001504   
    611. D(H  13,Al  5,Al  3,H  22)   -179.4121         0.001504   
    612. D(H  24,Al  5,Al  3,H  31)    -18.1098         0.001504   
    613. D(H  24,Al  5,Al  3,H  22)     59.6211         0.001504   
    614. D(H  20,Al  5,Al  4,H  12)    -84.5981         0.001518   
    615. D(Al  3,Al  5,Al  4,H   8)   -166.7198         0.001518   
    616. D(H  13,Al  5,Al  3,H  19)   -168.0447         0.001504   
    617. D(H  13,Al  5,Al  3,Al  6)    -91.2269         0.001504   
    618. D(H  13,Al  5,Al  3,Al  0)    134.5964         0.001504   
    619. D(Al  3,Al  5,Al  4,H  14)   -151.9026         0.001518   
    620. D(H  24,Al  5,Al  4,H  12)   -178.4092         0.001518   
    621. D(H  11,Al  5,Al  3,H  31)    175.6294         0.001504   
    622. D(H  11,Al  5,Al  3,H  29)    -12.7066         0.001504   
    623. D(H  11,Al  5,Al  3,H  25)     78.2881         0.001504   
    624. D(H  11,Al  5,Al  3,H  22)   -106.6397         0.001504   
    625. D(Al  3,Al  5,Al  4,Al  1)     80.7814         0.001518   
    626. D(H  29,Al  6,Al  5,H  24)    -63.2471         0.001504   
    627. D(H  29,Al  6,Al  5,H  20)     15.0370         0.001504   
    628. D(H  29,Al  6,Al  5,H  13)    132.1276         0.001504   
    629. D(H  29,Al  6,Al  5,H  11)    125.0902         0.001504   
    630. D(H  29,Al  6,Al  5,H   8)   -119.2199         0.001504   
    631. D(H  29,Al  6,Al  5,Al  4)    -87.0709         0.001504   
    632. D(H  29,Al  6,Al  5,Al  3)     -6.2254         0.001504   
    633. D(H  28,Al  6,Al  5,H  20)   -113.6303         0.001504   
    634. D(H  28,Al  6,Al  5,H  13)      3.4602         0.001504   
    635. D(H  28,Al  6,Al  5,H  11)     -3.5772         0.001504   
    636. D(H  28,Al  6,Al  5,Al  4)    144.2618         0.001504   
    637. D(H  28,Al  6,Al  5,Al  3)   -134.8927         0.001504   
    638. D(H  12,Al  6,Al  5,H  24)     39.2905         0.001504   
    639. D(H  12,Al  6,Al  5,H  13)   -125.3348         0.001504   
    640. D(H  12,Al  6,Al  5,H  11)   -132.3722         0.001504   
    641. D(H  12,Al  6,Al  5,H   8)    -16.6823         0.001504   
    642. D(H  12,Al  6,Al  5,Al  4)     15.4667         0.001504   
    643. D(H  12,Al  6,Al  5,Al  3)     96.3122         0.001504   
    644. D(H  11,Al  6,Al  5,H  24)    171.6627         0.001504   
    645. D(H  11,Al  6,Al  5,H  20)   -110.0532         0.001504   
    646. D(H  11,Al  6,Al  5,H   8)    115.6899         0.001504   
    647. D(H  11,Al  6,Al  5,Al  4)    147.8390         0.001504   
    648. D(H  11,Al  6,Al  5,Al  3)   -131.3155         0.001504   
    649. D(Al  4,Al  6,Al  5,H  20)    102.1079         0.001504   
    650. D(Al  4,Al  6,Al  5,H  13)   -140.8016         0.001504   
    651. D(Al  4,Al  6,Al  5,H  11)   -147.8390         0.001504   
    652. D(Al  4,Al  6,Al  5,Al  3)     80.8455         0.001504   
    653. D(Al  3,Al  6,Al  5,H  24)    -57.0218         0.001504   
    654. D(Al  3,Al  6,Al  5,H  20)     21.2624         0.001504   
    655. D(Al  3,Al  6,Al  5,H  13)    138.3529         0.001504   
    656. D(Al  3,Al  6,Al  5,H  11)    131.3155         0.001504   
    657. D(Al  3,Al  6,Al  5,H   8)   -112.9945         0.001504   
    658. D(Al  3,Al  6,Al  5,Al  4)    -80.8455         0.001504   
    659. D(H  29,Al  6,Al  4,H  19)     14.2812         0.001506   
    660. D(H  29,Al  6,Al  4,H  14)   -115.3628         0.001506   
    661. D(H  29,Al  6,Al  4,H  12)   -122.5911         0.001506   
    662. D(H  29,Al  6,Al  4,Al  5)     88.6338         0.001506   
    663. D(H  29,Al  6,Al  4,Al  1)     31.7541         0.001506   
    664. D(H  28,Al  6,Al  4,H  23)   -166.0625         0.001506   
    665. D(H  28,Al  6,Al  4,H  14)     16.9737         0.001506   
    666. D(H  28,Al  6,Al  4,H  12)      9.7454         0.001506   
    667. D(H  28,Al  6,Al  4,H   8)   -106.4017         0.001506   
    668. D(H  28,Al  6,Al  4,Al  5)   -139.0297         0.001506   
    669. D(H  28,Al  6,Al  4,Al  1)    164.0905         0.001506   
    670. D(H  12,Al  6,Al  4,H  23)   -175.8079         0.001506   
    671. D(H  12,Al  6,Al  4,H  19)    136.8722         0.001506   
    672. D(H  12,Al  6,Al  4,H   8)   -116.1471         0.001506   
    673. D(H  12,Al  6,Al  4,Al  5)   -148.7751         0.001506   
    674. D(H  12,Al  6,Al  4,Al  1)    154.3451         0.001506   
    675. D(H  11,Al  6,Al  4,H  19)    -88.9310         0.001506   
    676. D(H  11,Al  6,Al  4,H  14)    141.4250         0.001506   
    677. D(H  11,Al  6,Al  4,H  12)    134.1967         0.001506   
    678. D(H  11,Al  6,Al  4,Al  5)    -14.5784         0.001506   
    679. D(Al  5,Al  6,Al  4,H  23)    -27.0328         0.001506   
    680. D(Al  5,Al  6,Al  4,H  19)    -74.3526         0.001506   
    681. D(Al  5,Al  6,Al  4,H  14)    156.0034         0.001506   
    682. D(Al  5,Al  6,Al  4,H  12)    148.7751         0.001506   
    683. D(Al  5,Al  6,Al  4,H   8)     32.6280         0.001506   
    684. D(H  11,Al  6,Al  4,Al  1)    -71.4582         0.001506   
    685. D(Al  3,Al  6,Al  4,H  23)     42.1635         0.001506   
    686. D(H  11,Al  6,Al  4,H   8)     18.0496         0.001506   
    687. D(Al  3,Al  6,Al  4,H  19)     -5.1563         0.001506   
    688. D(Al  3,Al  6,Al  4,H  14)   -134.8003         0.001506   
    689. D(Al  5,Al  6,Al  4,Al  1)    -56.8798         0.001506   
    690. D(H  11,Al  6,Al  4,H  23)    -41.6112         0.001506   
    691. D(Al  3,Al  6,Al  4,H  12)   -142.0286         0.001506   
    692. D(Al  3,Al  6,Al  4,H   8)    101.8243         0.001506   
    693. D(Al  3,Al  6,Al  4,Al  1)     12.3165         0.001506   
    694. D(H  12,Al  6,Al  4,H  14)      7.2282         0.001506   
    695. D(H  29,Al  6,Al  3,H  31)   -167.7378         0.001505   
    696. D(H  29,Al  6,Al  3,H  25)     53.9162         0.001505   
    697. D(Al  3,Al  6,Al  4,Al  5)     69.1963         0.001506   
    698. D(H  29,Al  6,Al  3,H  22)    -63.8836         0.001505   
    699. D(H  29,Al  6,Al  3,H  20)    146.4361         0.001505   
    700. D(H  29,Al  6,Al  3,Al  0)   -102.8481         0.001505   
    701. D(H  28,Al  6,Al  3,H  31)    166.3403         0.001505   
    702. D(H  28,Al  6,Al  4,H  19)    146.6177         0.001506   
    703. D(H  28,Al  6,Al  3,H  29)    -25.9219         0.001505   
    704. D(H  28,Al  6,Al  3,H  25)     27.9944         0.001505   
    705. D(H  29,Al  6,Al  3,H  19)   -126.9698         0.001505   
    706. D(H  29,Al  6,Al  4,H   8)    121.2618         0.001506   
    707. D(H  28,Al  6,Al  3,H  22)    -89.8054         0.001505   
    708. D(H  28,Al  6,Al  3,H  20)    120.5142         0.001505   
    709. D(H  28,Al  6,Al  3,H  19)   -152.8917         0.001505   
    710. D(H  29,Al  6,Al  4,H  23)     61.6010         0.001506   
    711. D(H  28,Al  6,Al  3,Al  5)    139.9556         0.001505   
    712. D(H  28,Al  6,Al  3,Al  0)   -128.7699         0.001505   
    713. D(H  12,Al  6,Al  3,H  31)    -54.4811         0.001505   
    714. D(H  29,Al  6,Al  3,Al  5)    165.8774         0.001505   
    715. D(H  12,Al  6,Al  3,H  25)    167.1729         0.001505   
    716. D(H  12,Al  6,Al  3,H  20)   -100.3072         0.001505   
    717. D(H  12,Al  6,Al  3,H  19)    -13.7131         0.001505   
    718. D(Al  4,Al  6,Al  5,H   8)    -32.1490         0.001504   
    719. D(H  12,Al  6,Al  3,H  22)     49.3731         0.001505   
    720. D(H  12,Al  6,Al  3,Al  5)    -80.8659         0.001505   
    721. D(H  12,Al  6,Al  3,Al  0)     10.4086         0.001505   
    722. D(Al  4,Al  6,Al  5,H  24)     23.8238         0.001504   
    723. D(H  11,Al  6,Al  3,H  31)     47.1686         0.001505   
    724. D(H  11,Al  6,Al  3,H  22)    151.0229         0.001505   
    725. D(H  11,Al  6,Al  3,H  20)      1.3425         0.001505   
    726. D(H  11,Al  6,Al  5,H  13)      7.0374         0.001504   
    727. D(H  11,Al  6,Al  3,H  25)    -91.1773         0.001505   
    728. D(H  11,Al  6,Al  3,H  19)     87.9366         0.001505   
    729. D(H  11,Al  6,Al  3,Al  5)     20.7839         0.001505   
    730. D(H  11,Al  6,Al  3,Al  0)    112.0584         0.001505   
    731. D(H  11,Al  6,Al  3,H  29)   -145.0935         0.001505   
    732. D(H  12,Al  6,Al  3,H  29)    113.2567         0.001505   
    733. D(Al  5,Al  6,Al  3,H  29)   -165.8774         0.001505   
    734. D(H  12,Al  6,Al  5,H  20)    117.5746         0.001504   
    735. D(Al  5,Al  6,Al  3,H  25)   -111.9612         0.001505   
    736. D(Al  5,Al  6,Al  3,H  22)    130.2390         0.001505   
    737. D(Al  5,Al  6,Al  3,H  20)    -19.4414         0.001505   
    738. D(H  28,Al  6,Al  5,H   8)    112.1128         0.001504   
    739. D(Al  5,Al  6,Al  3,H  31)     26.3847         0.001505   
    740. D(Al  5,Al  6,Al  3,H  19)     67.1527         0.001505   
    741. D(Al  5,Al  6,Al  3,Al  0)     91.2745         0.001505   
    742. D(H  28,Al  6,Al  5,H  24)    168.0855         0.001504   
    743. D(Al  4,Al  6,Al  3,H  31)    -36.1563         0.001505   
    744. D(Al  4,Al  6,Al  3,H  29)    131.5815         0.001505   
    745. D(Al  4,Al  6,Al  3,H  25)   -174.5023         0.001505   
    746. D(Al  4,Al  6,Al  3,H  22)     67.6979         0.001505   
    747. D(Al  4,Al  6,Al  3,H  20)    -81.9824         0.001505   
    748. D(Al  4,Al  6,Al  3,H  19)      4.6117         0.001505   
    749. D(Al  4,Al  6,Al  3,Al  5)    -62.5410         0.001505   
    750. D(Al  4,Al  6,Al  3,Al  0)     28.7334         0.001505   
    751. D(Al  2,Al  7,Al  1,H  30)   -139.5887         0.001514   
    752. D(Al  2,Al  7,Al  1,H  23)     35.1025         0.001514   
    753. D(Al  2,Al  7,Al  1,H  21)     43.3405         0.001514   
    754. D(Al  2,Al  7,Al  1,H  10)    123.5093         0.001514   
    755. D(Al  2,Al  7,Al  1,H   9)    -35.7145         0.001514   
    756. D(Al  2,Al  7,Al  1,Al  4)     64.1739         0.001514   
    757. D(Al  0,Al  7,Al  1,H  30)    114.6522         0.001514   
    758. D(Al  0,Al  7,Al  1,H  23)    -70.6566         0.001514   
    759. D(Al  0,Al  7,Al  1,H  21)    -62.4186         0.001514   
    760. D(Al  0,Al  7,Al  1,H  15)    122.7359         0.001514   
    761. D(Al  0,Al  7,Al  1,H  10)     17.7502         0.001514   
    762. D(Al  0,Al  7,Al  1,H   9)   -141.4736         0.001514   
    763. D(Al  0,Al  7,Al  1,Al  4)    -41.5852         0.001514   
    764. D(H  18,Al  7,Al  0,H  31)    -78.6554         0.001501   
    765. D(H  18,Al  7,Al  0,H  26)     49.5626         0.001501   
    766. D(H  18,Al  7,Al  0,H  22)   -124.5657         0.001501   
    767. D(H  18,Al  7,Al  0,Al  3)    -94.8585         0.001501   
    768. D(H  18,Al  7,Al  0,Al  1)   -170.0101         0.001501   
    769. D(H  17,Al  7,Al  0,H  31)     21.1946         0.001501   
    770. D(H  17,Al  7,Al  0,H  22)    -24.7157         0.001501   
    771. D(H  17,Al  7,Al  0,H  18)     99.8500         0.001501   
    772. D(H  17,Al  7,Al  0,H  10)    -90.6838         0.001501   
    773. D(H  17,Al  7,Al  0,Al  3)      4.9915         0.001501   
    774. D(H  17,Al  7,Al  0,Al  1)    -70.1601         0.001501   
    775. D(H  16,Al  7,Al  0,H  31)   -127.4176         0.001501   
    776. D(H  16,Al  7,Al  0,H  26)      0.8004         0.001501   
    777. D(H  16,Al  7,Al  0,H  22)   -173.3279         0.001501   
    778. D(H  16,Al  7,Al  0,H  18)    -48.7622         0.001501   
    779. D(H  16,Al  7,Al  0,H  10)    120.7040         0.001501   
    780. D(H  16,Al  7,Al  0,Al  3)   -143.6207         0.001501   
    781. D(H  16,Al  7,Al  0,Al  1)    141.2277         0.001501   
    782. D(H  17,Al  7,Al  0,H  26)    149.4126         0.001501   
    783. D(H  15,Al  7,Al  0,H  31)    117.8619         0.001501   
    784. D(H  15,Al  7,Al  0,H  26)   -113.9201         0.001501   
    785. D(H  15,Al  7,Al  0,H  22)     71.9516         0.001501   
    786. D(H  18,Al  7,Al  0,H  10)    169.4661         0.001501   
    787. D(H  15,Al  7,Al  0,H  18)   -163.4827         0.001501   
    788. D(H  15,Al  7,Al  0,H  10)      5.9834         0.001501   
    789. D(H  15,Al  7,Al  0,Al  3)    101.6588         0.001501   
    790. D(Al  0,Al  7,Al  1,Al  2)   -105.7591         0.001514   
    791. D(H  15,Al  7,Al  0,Al  1)     26.5072         0.001501   
    792. D(Al  2,Al  7,Al  0,H  31)     41.3177         0.001501   
    793. D(Al  2,Al  7,Al  0,H  26)    169.5357         0.001501   
    794. D(Al  2,Al  7,Al  0,H  22)     -4.5926         0.001501   
    795. D(Al  2,Al  7,Al  0,H  18)    119.9731         0.001501   
    796. D(Al  2,Al  7,Al  0,H  10)    -70.5608         0.001501   
    797. D(Al  2,Al  7,Al  0,Al  3)     25.1146         0.001501   
    798. D(Al  2,Al  7,Al  1,Al  0)    105.7591         0.001514   
    799. D(Al  2,Al  7,Al  0,Al  1)    -50.0370         0.001501   
    800. D(Al  1,Al  7,Al  0,H  31)     91.3547         0.001501   
    801. D(Al  1,Al  7,Al  0,H  26)   -140.4273         0.001501   
    802. D(Al  2,Al  7,Al  1,H  15)   -131.5050         0.001514   
    803. D(Al  1,Al  7,Al  0,H  22)     45.4444         0.001501   
    804. D(Al  1,Al  7,Al  0,H  18)    170.0101         0.001501   
    805. D(Al  1,Al  7,Al  0,H  10)    -20.5238         0.001501   
    806. D(H  15,Al  7,Al  1,Al  0)   -122.7359         0.001514   
    807. D(Al  1,Al  7,Al  0,Al  3)     75.1516         0.001501   
    808. D(H  18,Al  7,Al  2,H  27)   -119.0964         0.001507   
    809. D(H  18,Al  7,Al  2,H  24)     15.0980         0.001507   
    810. D(H  18,Al  7,Al  2,H  21)     29.8140         0.001507   
    811. D(H  18,Al  7,Al  2,H  17)   -122.2483         0.001507   
    812. D(H  18,Al  7,Al  2,Al  1)     76.9288         0.001507   
    813. D(H  17,Al  7,Al  2,H  27)      3.1518         0.001507   
    814. D(H  17,Al  7,Al  2,H  24)    137.3462         0.001507   
    815. D(H  17,Al  7,Al  2,H   9)   -119.7644         0.001507   
    816. D(H  17,Al  7,Al  2,Al  1)   -160.8229         0.001507   
    817. D(H  16,Al  7,Al  2,H  27)     27.2591         0.001507   
    818. D(H  16,Al  7,Al  2,H  21)    176.1695         0.001507   
    819. D(H  16,Al  7,Al  2,H  17)     24.1073         0.001507   
    820. D(H  16,Al  7,Al  2,H   9)    -95.6571         0.001507   
    821. D(H  16,Al  7,Al  2,Al  1)   -136.7156         0.001507   
    822. D(H  15,Al  7,Al  2,H  27)    140.1311         0.001507   
    823. D(H  15,Al  7,Al  2,H  24)    -85.6745         0.001507   
    824. D(H  15,Al  7,Al  2,H  21)    -70.9585         0.001507   
    825. D(H  15,Al  7,Al  2,H   9)     17.2149         0.001507   
    826. D(H  15,Al  7,Al  2,Al  1)    -23.8436         0.001507   
    827. D(Al  1,Al  7,Al  2,H  27)    163.9747         0.001507   
    828. D(Al  1,Al  7,Al  2,H  21)    -47.1149         0.001507   
    829. D(Al  1,Al  7,Al  2,H  17)    160.8229         0.001507   
    830. D(Al  1,Al  7,Al  2,H   9)     41.0585         0.001507   
    831. D(Al  0,Al  7,Al  2,H  24)     -4.0184         0.001507   
    832. D(Al  0,Al  7,Al  2,H  21)     10.6976         0.001507   
    833. D(Al  0,Al  7,Al  2,H  17)   -141.3646         0.001507   
    834. D(Al  0,Al  7,Al  2,H   9)     98.8710         0.001507   
    835. D(Al  0,Al  7,Al  2,Al  1)     57.8125         0.001507   
    836. D(H  18,Al  7,Al  1,H  30)    118.4284         0.001514   
    837. D(H  18,Al  7,Al  1,H  23)    -66.8804         0.001514   
    838. D(H  18,Al  7,Al  1,H  21)    -58.6424         0.001514   
    839. D(H  18,Al  7,Al  1,H  15)    126.5121         0.001514   
    840. D(H  18,Al  7,Al  1,H  10)     21.5264         0.001514   
    841. D(H  18,Al  7,Al  1,H   9)   -137.6974         0.001514   
    842. D(H  18,Al  7,Al  1,Al  4)    -37.8090         0.001514   
    843. D(H  18,Al  7,Al  1,Al  2)   -101.9829         0.001514   
    844. D(H  18,Al  7,Al  1,Al  0)      3.7762         0.001514   
    845. D(H  17,Al  7,Al  1,H  30)   -129.6071         0.001514   
    846. D(Al  0,Al  7,Al  2,H  27)   -138.2128         0.001507   
    847. D(H  17,Al  7,Al  1,H  23)     45.0841         0.001514   
    848. D(H  17,Al  7,Al  1,H  21)     53.3221         0.001514   
    849. D(H  17,Al  7,Al  1,H  15)   -121.5234         0.001514   
    850. D(Al  1,Al  7,Al  2,H  24)    -61.8308         0.001507   
    851. D(H  17,Al  7,Al  1,H  10)    133.4909         0.001514   
    852. D(H  17,Al  7,Al  1,H   9)    -25.7329         0.001514   
    853. D(H  17,Al  7,Al  1,Al  4)     74.1555         0.001514   
    854. D(H  15,Al  7,Al  2,H  17)    136.9793         0.001507   
    855. D(H  17,Al  7,Al  1,Al  2)      9.9816         0.001514   
    856. D(H  17,Al  7,Al  1,Al  0)    115.7407         0.001514   
    857. D(H  16,Al  7,Al  1,H  30)     -6.4654         0.001514   
    858. D(H  16,Al  7,Al  1,H  23)    168.2257         0.001514   
    859. D(H  16,Al  7,Al  1,H  21)    176.4637         0.001514   
    860. D(H  16,Al  7,Al  1,H  15)      1.6182         0.001514   
    861. D(H  16,Al  7,Al  1,H  10)   -103.3675         0.001514   
    862. D(H  16,Al  7,Al  2,H  24)    161.4535         0.001507   
    863. D(H  16,Al  7,Al  1,H   9)     97.4087         0.001514   
    864. D(H  16,Al  7,Al  1,Al  4)   -162.7028         0.001514   
    865. D(H  16,Al  7,Al  1,Al  2)    133.1232         0.001514   
    866. D(H  17,Al  7,Al  2,H  21)    152.0622         0.001507   
    867. D(H  16,Al  7,Al  1,Al  0)   -121.1177         0.001514   
    868. D(H  15,Al  7,Al  1,H  30)     -8.0837         0.001514   
    869. D(H  15,Al  7,Al  1,H  23)    166.6075         0.001514   
    870. D(H  18,Al  7,Al  2,H   9)    117.9874         0.001507   
    871. D(H  15,Al  7,Al  1,H  21)    174.8455         0.001514   
    872. D(H  15,Al  7,Al  1,H  10)   -104.9857         0.001514   
    873. D(H  15,Al  7,Al  1,H   9)     95.7905         0.001514   
    874. D(H  15,Al  7,Al  1,Al  4)   -164.3211         0.001514   
    875. D(H  15,Al  7,Al  1,Al  2)    131.5050         0.001514   
    876. D(Al  4,H   8,Al  5,H  20)      9.1354         0.004010   
    877. D(Al  4,H   8,Al  5,H  13)    174.8163         0.004010   
    878. D(Al  4,H   8,Al  5,H  11)     87.2807         0.004010   
    879. D(Al  4,H   8,Al  5,Al  6)     65.4269         0.004010   
    880. D(Al  4,H   8,Al  5,Al  3)     12.4696         0.004010   
    881. D(Al  5,H   8,Al  4,H  23)     84.6838         0.004992   
    882. D(Al  5,H   8,Al  4,H  19)     -3.9609         0.004992   
    883. D(Al  5,H   8,Al  4,H  14)   -173.1400         0.004992   
    884. D(Al  5,H   8,Al  4,H  12)    -89.8233         0.004992   
    885. D(Al  5,H   8,Al  4,Al  6)    -66.2877         0.004992   
    886. D(Al  4,H   8,Al  5,H  24)    -82.8949         0.004010   
    887. D(Al  5,H   8,Al  4,Al  1)     71.1105         0.004992   
    888. D(Al  1,H   9,Al  2,H  27)   -173.2114         0.005330   
    889. D(Al  1,H   9,Al  2,H  21)     -1.0326         0.005330   
    890. D(Al  1,H   9,Al  2,H  17)    -79.7614         0.005330   
    891. D(Al  1,H   9,Al  2,Al  7)    -55.6782         0.005330   
    892. D(Al  2,H   9,Al  1,H  30)    175.7595         0.002381   
    893. D(Al  2,H   9,Al  1,H  23)    -86.9226         0.002381   
    894. D(Al  2,H   9,Al  1,H  21)      1.0136         0.002381   
    895. D(Al  2,H   9,Al  1,H  15)     86.6636         0.002381   
    896. D(Al  2,H   9,Al  1,H  10)      3.7346         0.002381   
    897. D(Al  2,H   9,Al  1,Al  7)     58.1144         0.002381   
    898. D(Al  1,H   9,Al  2,H  24)     79.7479         0.005330   
    899. D(Al  2,H   9,Al  1,Al  4)    -78.7889         0.002381   
    900. D(Al  2,H   9,Al  1,Al  0)     10.0551         0.002381   
    901. D(Al  0,H  10,Al  1,H  30)   -160.3212         0.002496   
    902. D(Al  0,H  10,Al  1,H  23)     99.8336         0.002496   
    903. D(Al  0,H  10,Al  1,H  21)     14.5899         0.002496   
    904. D(Al  0,H  10,Al  1,H  15)    -70.4607         0.002496   
    905. D(Al  0,H  10,Al  1,H   9)     11.8682         0.002496   
    906. D(Al  0,H  10,Al  1,Al  7)    -42.8540         0.002496   
    907. D(Al  0,H  10,Al  1,Al  4)    100.1751         0.002496   
    908. D(Al  0,H  10,Al  1,Al  2)     14.4588         0.002496   
    909. D(Al  1,H  10,Al  0,H  31)    -37.4067         0.005603   
    910. D(Al  1,H  10,Al  0,H  26)    135.7643         0.005603   
    911. D(Al  1,H  10,Al  0,H  22)   -120.8031         0.005603   
    912. D(Al  1,H  10,Al  0,H  18)     42.3889         0.005603   
    913. D(Al  1,H  10,Al  0,Al  7)     38.9765         0.005603   
    914. D(Al  1,H  10,Al  0,Al  3)    -80.3521         0.005603   
    915. D(Al  5,H  11,Al  6,H  29)    -56.6668         0.006428   
    916. D(Al  5,H  11,Al  6,H  28)    177.6462         0.006428   
    917. D(Al  5,H  11,Al  6,H  12)     48.5294         0.006428   
    918. D(Al  5,H  11,Al  6,Al  4)     26.5627         0.006428   
    919. D(Al  5,H  11,Al  6,Al  3)    -41.6159         0.006428   
    920. D(Al  6,H  11,Al  5,H  24)    -19.9137         0.002411   
    921. D(Al  6,H  11,Al  5,H  20)     65.8898         0.002411   
    922. D(Al  6,H  11,Al  5,H  13)   -173.6199         0.002411   
    923. D(Al  6,H  11,Al  5,H   8)    -59.1517         0.002411   
    924. D(Al  6,H  11,Al  5,Al  4)    -28.0576         0.002411   
    925. D(Al  6,H  11,Al  5,Al  3)     41.5379         0.002411   
    926. D(Al  4,H  12,Al  6,H  29)     59.1670         0.006552   
    927. D(Al  4,H  12,Al  6,H  28)   -174.2144         0.006552   
    928. D(Al  4,H  12,Al  6,H  11)    -46.2108         0.006552   
    929. D(Al  4,H  12,Al  6,Al  5)    -25.6165         0.006552   
    930. D(Al  4,H  12,Al  6,Al  3)     34.5495         0.006552   
    931. D(Al  6,H  12,Al  4,H  23)     16.8569         0.002294   
    932. D(Al  6,H  12,Al  4,H  19)    -38.9109         0.002294   
    933. D(Al  6,H  12,Al  4,H  14)   -173.3674         0.002294   
    934. D(Al  6,H  12,Al  4,H   8)     59.3396         0.002294   
    935. D(Al  6,H  12,Al  4,Al  5)     27.5925         0.002294   
    936. D(Al  6,H  12,Al  4,Al  1)    -54.8959         0.002294   
    937. D(Al  1,H  15,Al  7,H  18)    -54.4982         0.006279   
    938. D(Al  1,H  15,Al  7,H  17)     58.9174         0.006279   
    939. D(Al  1,H  15,Al  7,H  16)   -179.0135         0.006279   
    940. D(Al  1,H  15,Al  7,Al  2)     37.7132         0.006279   
    941. D(Al  1,H  15,Al  7,Al  0)    -48.2216         0.006279   
    942. D(Al  7,H  15,Al  1,H  30)    172.8910         0.003274   
    943. D(Al  7,H  15,Al  1,H  23)    -46.5389         0.003274   
    944. D(Al  7,H  15,Al  1,H  21)     -4.3136         0.003274   
    945. D(Al  7,H  15,Al  1,H  10)     72.8593         0.003274   
    946. D(Al  7,H  15,Al  1,H   9)    -81.7759         0.003274   
    947. D(Al  7,H  15,Al  1,Al  4)     39.5821         0.003274   
    948. D(Al  7,H  15,Al  1,Al  2)    -43.0500         0.003274   
    949. D(Al  7,H  15,Al  1,Al  0)     50.1733         0.003274   
    950. D(Al  2,H  17,Al  7,H  16)   -164.7308         0.005990   
    951. D(Al  2,H  17,Al  7,H  15)    -42.0668         0.005990   
    952. D(Al  2,H  17,Al  7,Al  1)    -15.2042         0.005990   
    953. D(Al  2,H  17,Al  7,Al  0)     40.8158         0.005990   
    954. D(Al  7,H  17,Al  2,H  27)   -177.1725         0.002418   
    955. D(Al  7,H  17,Al  2,H  24)    -75.2547         0.002418   
    956. D(Al  7,H  17,Al  2,H  21)    -22.7923         0.002418   
    957. D(Al  7,H  17,Al  2,H   9)     60.8017         0.002418   
    958. D(Al  2,H  17,Al  7,H  18)     64.1697         0.005990   
    959. D(Al  7,H  17,Al  2,Al  1)     16.9155         0.002418   
    960. D(Al  0,H  18,Al  7,H  17)    -88.0186         0.006594   
    961. D(Al  0,H  18,Al  7,H  16)    141.2416         0.006594   
    962. D(Al  0,H  18,Al  7,H  15)     16.6315         0.006594   
    963. D(Al  0,H  18,Al  7,Al  2)    -59.8080         0.006594   
    964. D(Al  0,H  18,Al  7,Al  1)     -8.7923         0.006594   
    965. D(Al  7,H  18,Al  0,H  31)     98.3806         0.002238   
    966. D(Al  7,H  18,Al  0,H  26)   -132.3710         0.002238   
    967. D(Al  7,H  18,Al  0,H  22)    107.7824         0.002238   
    968. D(Al  7,H  18,Al  0,H  10)    -10.1412         0.002238   
    969. D(Al  7,H  18,Al  0,Al  3)     96.7560         0.002238   
    970. D(Al  7,H  18,Al  0,Al  1)      8.4745         0.002238   
    971. D(Al  3,H  19,Al  4,H  23)   -131.8941         0.006940   
    972. D(Al  3,H  19,Al  4,H  14)    124.3291         0.006940   
    973. D(Al  3,H  19,Al  4,H   8)    -43.6021         0.006940   
    974. D(Al  3,H  19,Al  4,Al  6)     23.6957         0.006940   
    975. D(Al  3,H  19,Al  4,Al  5)    -45.8709         0.006940   
    976. D(Al  3,H  19,Al  4,Al  1)   -144.3788         0.006940   
    977. D(Al  4,H  19,Al  3,H  31)    135.1686         0.002570   
    978. D(Al  4,H  19,Al  3,H  29)    -43.1825         0.002570   
    979. D(Al  4,H  19,Al  3,H  25)    -16.4139         0.002570   
[...]
 1046   0.0000       9.105864       247.7831 
 1047   0.0000       9.108373       247.8514 
 1048   0.0000       9.111402       247.9338 
 1049   0.0000       9.112961       247.9763 
 1050   0.0000       9.118768       248.1343 
 1051   0.0000       9.120685       248.1865 
 1052   0.0000       9.123704       248.2686 
 1053   0.0000       9.125195       248.3092 
 1054   0.0000       9.129115       248.4158 
 1055   0.0000       9.133743       248.5418 
 1056   0.0000       9.137327       248.6393 
 1057   0.0000       9.138250       248.6644 
 1058   0.0000       9.141329       248.7482 
 1059   0.0000       9.142678       248.7849 
 1060   0.0000       9.145538       248.8627 
 1061   0.0000       9.146624       248.8923 
 1062   0.0000       9.147246       248.9092 
 1063   0.0000       9.150854       249.0074 
 1064   0.0000       9.151172       249.0160 
 1065   0.0000       9.151851       249.0345 
 1066   0.0000       9.152804       249.0605 
 1067   0.0000       9.154124       249.0964 
 1068   0.0000       9.154766       249.1138 
 1069   0.0000       9.155289       249.1281 
 1070   0.0000       9.157070       249.1765 
 1071   0.0000       9.160313       249.2648 
 1072   0.0000       9.161911       249.3083 
 1073   0.0000       9.164033       249.3660 
 1074   0.0000       9.164865       249.3886 
 1075   0.0000       9.169359       249.5109 
 1076   0.0000       9.171926       249.5808 
 1077   0.0000       9.175875       249.6882 
 1078   0.0000       9.176752       249.7121 
 1079   0.0000       9.180294       249.8085 
 1080   0.0000       9.186439       249.9757 
 1081   0.0000       9.187952       250.0169 
 1082   0.0000       9.190097       250.0753 
 1083   0.0000       9.192129       250.1305 
 1084   0.0000       9.199577       250.3332 
 1085   0.0000       9.204839       250.4764 
 1086   0.0000       9.207301       250.5434 
 1087   0.0000       9.212251       250.6781 
 1088   0.0000       9.216038       250.7811 
 1089   0.0000       9.218508       250.8484 
 1090   0.0000       9.222530       250.9578 
 1091   0.0000       9.228657       251.1245 
 1092   0.0000       9.230173       251.1658 
 1093   0.0000       9.235602       251.3135 
 1094   0.0000       9.242789       251.5091 
 1095   0.0000       9.245437       251.5811 
 1096   0.0000       9.247428       251.6353 
 1097   0.0000       9.248336       251.6600 
 1098   0.0000       9.251903       251.7571 
 1099   0.0000       9.258657       251.9409 
 1100   0.0000       9.259919       251.9752 
 1101   0.0000       9.268330       252.2041 
 1102   0.0000       9.268807       252.2171 
 1103   0.0000       9.273282       252.3388 
 1104   0.0000       9.278544       252.4820 
 1105   0.0000       9.286730       252.7048 
 1106   0.0000       9.290968       252.8201 
 1107   0.0000       9.293296       252.8835 
 1108   0.0000       9.300341       253.0751 
 1109   0.0000       9.300846       253.0889 
 1110   0.0000       9.302531       253.1347 
 1111   0.0000       9.306797       253.2508 
 1112   0.0000       9.315948       253.4998 
 1113   0.0000       9.317826       253.5509 
 1114   0.0000       9.321589       253.6533 
 1115   0.0000       9.325665       253.7642 
 1116   0.0000       9.328473       253.8407 
 1117   0.0000       9.340298       254.1624 
 1118   0.0000       9.341972       254.2080 
 1119   0.0000       9.348098       254.3747 
 1120   0.0000       9.354497       254.5488 
 1121   0.0000       9.360517       254.7126 
 1122   0.0000       9.373656       255.0701 
 1123   0.0000       9.376602       255.1503 
 1124   0.0000       9.381518       255.2841 
 1125   0.0000       9.387515       255.4473 
 1126   0.0000       9.390517       255.5290 
 1127   0.0000       9.396485       255.6914 
 1128   0.0000       9.402292       255.8494 
 1129   0.0000       9.408854       256.0279 
 1130   0.0000       9.414655       256.1858 
 1131   0.0000       9.421325       256.3673 
 1132   0.0000       9.423071       256.4148 
 1133   0.0000       9.434286       256.7200 
 1134   0.0000       9.436517       256.7807 
 1135   0.0000       9.446703       257.0578 
 1136   0.0000       9.460903       257.4443 
 1137   0.0000       9.469819       257.6869 
 1138   0.0000       9.470309       257.7002 
 1139   0.0000       9.477185       257.8873 
 1140   0.0000       9.483585       258.0615 
 1141   0.0000       9.489312       258.2173 
 1142   0.0000       9.502282       258.5702 
 1143   0.0000       9.506995       258.6985 
 1144   0.0000       9.522243       259.1134 
 1145   0.0000       9.528846       259.2931 
 1146   0.0000       9.543427       259.6898 
 1147   0.0000       9.551939       259.9215 
 1148   0.0000       9.559797       260.1353 
 1149   0.0000       9.566861       260.3275 
 1150   0.0000       9.573622       260.5115 
 1151   0.0000       9.575943       260.5747 
 1152   0.0000       9.586248       260.8551 
 1153   0.0000       9.590359       260.9669 
 1154   0.0000       9.596406       261.1315 
 1155   0.0000       9.606674       261.4109 
 1156   0.0000       9.616141       261.6685 
 1157   0.0000       9.628852       262.0144 
 1158   0.0000       9.641956       262.3710 
 1159   0.0000       9.646020       262.4816 
 1160   0.0000       9.656660       262.7711 
 1161   0.0000       9.660614       262.8787 
 1162   0.0000       9.668030       263.0805 
 1163   0.0000       9.678446       263.3639 
 1164   0.0000       9.688097       263.6265 
 1165   0.0000       9.689339       263.6603 
 1166   0.0000       9.699393       263.9339 
 1167   0.0000       9.702904       264.0294 
 1168   0.0000       9.711654       264.2675 
 1169   0.0000       9.718807       264.4622 
 1170   0.0000       9.723197       264.5816 
 1171   0.0000       9.760471       265.5959 
 1172   0.0000       9.769473       265.8409 
 1173   0.0000       9.777955       266.0717 
 1174   0.0000       9.781078       266.1567 
 1175   0.0000       9.785369       266.2734 
 1176   0.0000       9.791919       266.4517 
 1177   0.0000       9.802976       266.7525 
 1178   0.0000       9.809279       266.9241 
 1179   0.0000       9.814492       267.0659 
 1180   0.0000       9.822102       267.2730 
 1181   0.0000       9.826730       267.3989 
 1182   0.0000       9.831633       267.5323 
 1183   0.0000       9.846048       267.9246 
 1184   0.0000       9.852480       268.0996 
 1185   0.0000       9.868128       268.5254 
 1186   0.0000       9.877908       268.7915 
 1187   0.0000       9.888975       269.0927 
 1188   0.0000       9.891542       269.1625 
 1189   0.0000       9.900314       269.4012 
 1190   0.0000       9.904423       269.5130 
 1191   0.0000       9.911503       269.7057 
 1192   0.0000       9.920660       269.9549 
 1193   0.0000       9.930782       270.2303 
 1194   0.0000       9.946947       270.6702 
 1195   0.0000       9.951563       270.7958 
 1196   0.0000       9.954281       270.8698 
 1197   0.0000       9.964364       271.1441 
 1198   0.0000       9.972194       271.3572 
 1199   0.0000       9.977670       271.5062 
 1200   0.0000       9.986913       271.7577 
 1201   0.0000       9.996391       272.0156 
 1202   0.0000      10.019286       272.6386 
 1203   0.0000      10.025328       272.8030 
 1204   0.0000      10.062634       273.8182 
 1205   0.0000      10.077460       274.2216 
 1206   0.0000      10.119901       275.3765 
 1207   0.0000      10.226648       278.2812 
 1208   0.0000      12.151416       330.6568 
 1209   0.0000      12.263813       333.7153 
 1210   0.0000      12.295142       334.5678 
 1211   0.0000      12.367689       336.5419 
 1212   0.0000      12.550388       341.5134 
 1213   0.0000      12.614354       343.2540 
 1214   0.0000      12.737303       346.5996 
 1215   0.0000      12.793631       348.1324 
 1216   0.0000      13.436912       365.6370 
 1217   0.0000      13.443281       365.8103 
 1218   0.0000      13.448973       365.9652 
 1219   0.0000      13.455837       366.1519 
 1220   0.0000      13.456951       366.1822 
 1221   0.0000      13.464317       366.3827 
 1222   0.0000      13.471417       366.5759 
 1223   0.0000      13.483593       366.9072 
 1224   0.0000      13.488077       367.0292 
 1225   0.0000      13.531598       368.2135 
 1226   0.0000      13.565147       369.1264 
 1227   0.0000      13.576462       369.4343 
 1228   0.0000      13.585755       369.6872 
 1229   0.0000      13.588973       369.7747 
 1230   0.0000      13.604662       370.2017 
 1231   0.0000      13.624381       370.7383 
 1232   0.0000      13.665237       371.8500 
 1233   0.0000      13.691339       372.5603 
 1234   0.0000      13.820288       376.0692 
 1235   0.0000      13.840729       376.6254 
 1236   0.0000      13.871338       377.4583 
 1237   0.0000      13.929897       379.0518 
 1238   0.0000      13.931081       379.0840 
 1239   0.0000      13.936110       379.2208 
 1240   0.0000      13.957705       379.8085 
 1241   0.0000      13.961020       379.8987 
 1242   0.0000      13.969911       380.1406 
 1243   0.0000      13.995373       380.8335 
 1244   0.0000      14.021649       381.5485 
 1245   0.0000      14.058454       382.5500 
 1246   0.0000      14.080570       383.1518 
 1247   0.0000      14.082174       383.1954 
 1248   0.0000      14.184098       385.9689 
 1249   0.0000      14.235328       387.3630 
 1250   0.0000      14.243570       387.5873 
 1251   0.0000      14.246036       387.6544 
 1252   0.0000      14.279225       388.5575 
 1253   0.0000      14.455927       393.3658 
 1254   0.0000      14.478505       393.9801 
 1255   0.0000      14.599179       397.2639 
 1256   0.0000      19.073546       519.0176 
 1257   0.0000      19.087135       519.3873 
 1258   0.0000      19.087617       519.4005 
 1259   0.0000      19.113829       520.1137 
 1260   0.0000      19.121042       520.3100 
 1261   0.0000      19.127849       520.4952 
 1262   0.0000      19.130658       520.5717 
 1263   0.0000      19.139648       520.8163 
 1264   0.0000      19.151303       521.1334 
 1265   0.0000      19.154661       521.2248 
 1266   0.0000      19.162649       521.4422 
 1267   0.0000      19.168325       521.5967 
 1268   0.0000      19.172425       521.7082 
 1269   0.0000      19.180532       521.9288 
 1270   0.0000      19.187609       522.1214 
 1271   0.0000      19.189521       522.1734 
 1272   0.0000      19.191122       522.2170 
 1273   0.0000      19.196376       522.3599 
 1274   0.0000      19.204728       522.5872 
 1275   0.0000      19.213524       522.8266 
 1276   0.0000      19.219911       523.0004 
 1277   0.0000      19.221292       523.0379 
 1278   0.0000      19.236244       523.4448 
 1279   0.0000      19.237484       523.4786 
 1280   0.0000      19.243249       523.6354 
 1281   0.0000      19.266294       524.2625 
 1282   0.0000      19.277521       524.5680 
 1283   0.0000      19.279057       524.6098 
 1284   0.0000      19.312680       525.5247 
 1285   0.0000      19.323480       525.8186 
 1286   0.0000      19.324005       525.8329 
 1287   0.0000      19.349272       526.5205 
 1288   0.0000      19.357808       526.7527 
 1289   0.0000      19.372005       527.1391 
 1290   0.0000      19.378320       527.3109 
 1291   0.0000      19.403953       528.0084 
 1292   0.0000      19.425811       528.6032 
 1293   0.0000      19.439564       528.9774 
 1294   0.0000      19.448252       529.2138 
 1295   0.0000      19.451411       529.2998 
 1296   0.0000      19.497867       530.5639 
 1297   0.0000      19.509952       530.8928 
 1298   0.0000      19.515561       531.0454 
 1299   0.0000      19.540197       531.7158 
 1300   0.0000      19.550331       531.9916 
 1301   0.0000      19.587646       533.0069 
 1302   0.0000      19.623460       533.9815 
 1303   0.0000      19.640264       534.4388 
 1304   0.0000      19.652684       534.7767 
 1305   0.0000      19.672943       535.3280 
 1306   0.0000      19.673848       535.3526 
 1307   0.0000      19.687794       535.7321 
 1308   0.0000      19.695691       535.9470 
 1309   0.0000      19.700492       536.0776 
 1310   0.0000      19.711515       536.3776 
 1311   0.0000      19.738994       537.1253 
 1312   0.0000      19.770375       537.9793 
 1313   0.0000      19.780732       538.2611 
 1314   0.0000      19.783512       538.3367 
 1315   0.0000      19.793256       538.6019 
 1316   0.0000      19.801917       538.8376 
 1317   0.0000      19.819938       539.3279 
 1318   0.0000      19.832499       539.6697 
 1319   0.0000      19.854923       540.2799 
 1320   0.0000      19.864093       540.5294 
 1321   0.0000      19.878676       540.9263 
 1322   0.0000      19.915465       541.9273 
 1323   0.0000      19.952401       542.9324 
 1324   0.0000      19.985269       543.8268 
 1325   0.0000      20.003029       544.3101 
 1326   0.0000      20.091183       546.7089 
 1327   0.0000      20.102478       547.0162 
-------
TIMINGS
-------

Total SCF time: 0 days 0 hours 17 min 33 sec 

Total time                  ....    1053.308 sec
Sum of individual times     ....    1032.678 sec  ( 98.0%)

Fock matrix formation       ....     980.952 sec  ( 93.1%)
  Split-RI-J                ....     657.981 sec  ( 67.1% of F)
  XC integration            ....     322.315 sec  ( 32.9% of F)
    Basis function eval.    ....      70.238 sec  ( 21.8% of XC)
    Density eval.           ....     156.270 sec  ( 48.5% of XC)
    XC-Functional eval.     ....       4.180 sec  (  1.3% of XC)
    XC-Potential eval.      ....      84.873 sec  ( 26.3% of XC)
Diagonalization             ....       3.723 sec  (  0.4%)
Density matrix formation    ....       0.540 sec  (  0.1%)
Population analysis         ....       0.000 sec  (  0.0%)
Initial guess               ....       4.419 sec  (  0.4%)
Orbital Transformation      ....       0.000 sec  (  0.0%)
Orbital Orthonormalization  ....       4.257 sec  (  0.4%)
DIIS solution               ....       1.173 sec  (  0.1%)
SOSCF solution              ....      10.347 sec  (  1.0%)
Grid generation             ....      31.525 sec  (  3.0%)

Maximum memory used throughout the entire SCF-calculation: 1830.4 MB


-------------------------------------------------------------------------------
                          DFT DISPERSION CORRECTION                            
                                                                               
                              DFTD3 V3.1  Rev 1                                
                          USING Becke-Johnson damping                          
-------------------------------------------------------------------------------
The PBE functional is recognized
Active option DFTDOPT                   ...         4   

molecular C6(AA) [au] = 19713.655707 


            DFT-D V3
 parameters
 s6 scaling factor         :     1.0000 
 a1 scaling factor         :     0.4289 
 s8 scaling factor         :     0.7875 
 a2 scaling factor         :     4.4407 
 ad hoc parameters k1-k3   :    16.0000     1.3333    -4.0000 

 Edisp/kcal,au: -27.896156875880  -0.044455350960 
 E6   /kcal   : -17.407405396 
 E8   /kcal   : -10.488751480 
 % E8         :  37.599270489 

-------------------------   ----------------
Dispersion correction           -0.044455351
-------------------------   ----------------


-------------------------   --------------------
FINAL SINGLE POINT ENERGY     -1952.813042642344
-------------------------   --------------------

                                *** OPTIMIZATION RUN DONE ***

                            ***************************************
                            *     ORCA property calculations      *
                            ***************************************

                                    ---------------------
                                    Active property flags
                                    ---------------------
   (+) Dipole Moment


------------------------------------------------------------------------------
                       ORCA ELECTRIC PROPERTIES CALCULATION
------------------------------------------------------------------------------

Dipole Moment Calculation                       ... on
Quadrupole Moment Calculation                   ... off
Polarizability Calculation                      ... off
GBWName                                         ... run.gbw
Electron density                                ... run.scfp
The origin for moment calculation is the CENTER OF MASS  = ( 1.128975, -7.361577  0.466422)

-------------
DIPOLE MOMENT
-------------
                                X             Y             Z
Electronic contribution:     -0.20119      -0.63979      -0.43436
Nuclear contribution   :      0.08252       0.27813       0.12928
                        -----------------------------------------
Total Dipole Moment    :     -0.11867      -0.36166      -0.30508
                        -----------------------------------------
Magnitude (a.u.)       :      0.48780
Magnitude (Debye)      :      1.23990



--------------------
Rotational spectrum 
--------------------
 
Rotational constants in cm-1:     0.022961     0.010440     0.009325 
Rotational constants in MHz :   688.345450   312.995539   279.560291 

 Dipole components along the rotational axes: 
x,y,z [a.u.] :     0.317045    -0.363135    -0.074624 
x,y,z [Debye]:     0.805864    -0.923015    -0.189679 

 

-------------------------------------------------------------------------------
                               ORCA SCF HESSIAN
-------------------------------------------------------------------------------

                   --------- SHARK INITIALIZATION DONE ---------

Hessian of the Kohn-Sham DFT energy:
Kohn-Sham wavefunction type                      ... RKS
Hartree-Fock exchange scaling                    ...    0.000
Number of operators                              ...    1
Number of atoms                                  ...   32
Basis set dimensions                             ... 1328
Integral neglect threshold                       ... 2.5e-11
Integral primitive cutoff                        ... 2.5e-12

Setting up DFT Hessian calculations              ... 

HESS GRID
---------

General Integration Accuracy     IntAcc      ... 4.959
Radial Grid Type                 RadialGrid  ... OptM3 with GC (2021)
Angular Grid (max. ang.)         AngularGrid ... 7 (Lebedev-770)
Angular grid pruning method      GridPruning ... 4 (adaptive)
Weight generation scheme         WeightScheme... Becke
Basis function cutoff            BFCut       ... 1.0000e-11
Integration weight cutoff        WCut        ... 1.0000e-14
Angular grids for H and He will be reduced by one unit
Partially contracted basis set               ... off
Rotationally invariant grid construction     ... off

Total number of grid points                  ...   502941
Total number of batches                      ...     7872
Average number of points per batch           ...       63
Average number of grid points per atom       ...    15717

Building densities                               ... done   (      0.2 sec)
Calculating rho(r) on the grid                   ... done   (     69.1 sec)
Building xc-kernel on the grid                   ... done   (      1.4 sec)
                                                     done   (    117.0 sec)

Nuclear repulsion Hessian  (SHARK)               ... done   (      0.0 sec)


Error (ORCA_SCFHESS): Available memory of 1024 MB is insufficient!
      ------->        Increase MaxCore to 1288 MB for OnDisk storage
                      - or -              6471 MB for InCore storage


[file orca_scfhess/orca_scfhess.cpp, line 217]: Error (ORCA_SCFHESS): Calculation of the analytical SCF Hessian failed


ORCA finished by error termination in SCF Hessian
Calling Command: /home/mehlhorn/orca5/orca_scfhess run.scfhess.inp 
[file orca_tools/qcmsg.cpp, line 465]: 
  .... aborting the run

