
     Program PHONON v.7.3.1 starts on 23Jul2025 at  8:11:35 

     This program is part of the open-source Quantum ESPRESSO suite
     for quantum simulation of materials; please cite
         "P. Giannozzi et al., J. Phys.:Condens. Matter 21 395502 (2009);
         "P. Giannozzi et al., J. Phys.:Condens. Matter 29 465901 (2017);
         "P. Giannozzi et al., J. Chem. Phys. 152 154105 (2020);
          URL http://www.quantum-espresso.org", 
     in publications or presentations arising from this work. More details at
     http://www.quantum-espresso.org/quote

     Parallel version (MPI), running on   256 processors

     MPI processes distributed on     1 nodes
     1523784 MiB available memory on the printing compute node when the environment starts

     Waiting for input...
     Reading input from standard input

     Reading xml data from directory:

     ./pwscf.save/

     R & G space division:  proc/nbgrp/npool/nimage =     256
     WARNING: too many processors for an effective parallelization!
     wavefunctions fft division:  task group distribution
                                  #TG    x Z-proc =       8     32
     Subspace diagonalization in iterative solution of the eigenvalue problem:
     one sub-group per band group will be used
     custom distributed-memory algorithm (size of sub-group:  2*  2 procs)

     file H.pbe-kjpaw_psl.1.0.0.UPF: wavefunction(s)  1S renormalized
     file Zr.pbe-spn-kjpaw_psl.1.0.0.UPF: wavefunction(s)  4S 4P renormalized
     file C.pbe-n-kjpaw_psl.1.0.0.UPF: wavefunction(s)  2S 2P renormalized
     file O.pbe-n-kjpaw_psl.1.0.0.UPF: wavefunction(s)  2S 2P renormalized

     IMPORTANT: XC functional enforced from input :
     Exchange-correlation= PBE
                           (   1   4   3   4   0   0   0)
     Any further DFT definition will be discarded
     Please, verify this is what you really want


     Parallelization info
     --------------------
     sticks:   dense  smooth     PW     G-vecs:    dense   smooth      PW
     Min         186     124     31                27244    14826    1850
     Max         187     125     32                27254    14834    1857
     Sum       47779   31815   7951              6975721  3796127  474567

     Using Pencil Decomposition


     negative rho (up, down):  3.881E-05 0.000E+00
     Reading collected, re-writing distributed wavefunctions in ./


     Dynamical matrices for ( 1, 1, 1)  uniform grid of q-points
     (   1 q-points):
       N         xq(1)         xq(2)         xq(3) 
       1   0.000000000   0.000000000   0.000000000

     Number and degeneracy of irreps per q-point
       N         xq(1)         xq(2)         xq(3)   N irreps
Eigenvectors exchange needed   45  265
Eigenvectors exchange needed   45  319
Eigenvectors exchange needed   46  319
Eigenvectors exchange needed   55  109
Eigenvectors exchange needed   57  111
Eigenvectors exchange needed   59  113
Eigenvectors exchange needed   61  115
Eigenvectors exchange needed   63  117
Eigenvectors exchange needed   65  119
Eigenvectors exchange needed   67  121
Eigenvectors exchange needed   69  123
Eigenvectors exchange needed   71  125
Eigenvectors exchange needed   73  127
Eigenvectors exchange needed   75  129
Eigenvectors exchange needed   77  131
Eigenvectors exchange needed   79  133
Eigenvectors exchange needed   81  135
Eigenvectors exchange needed   83  137
Eigenvectors exchange needed   85  139
Eigenvectors exchange needed   87  141
Eigenvectors exchange needed   89  143
Eigenvectors exchange needed   91  145
Eigenvectors exchange needed   93  147
Eigenvectors exchange needed   95  149
Eigenvectors exchange needed   97  151
Eigenvectors exchange needed   99  153
Eigenvectors exchange needed  101  155
Eigenvectors exchange needed  103  157
Eigenvectors exchange needed  105  159
Eigenvectors exchange needed  107  161
Eigenvectors exchange needed  109  110
Eigenvectors exchange needed  111  112
Eigenvectors exchange needed  113  114
Eigenvectors exchange needed  115  116
Eigenvectors exchange needed  117  118
Eigenvectors exchange needed  119  120
Eigenvectors exchange needed  121  122
Eigenvectors exchange needed  123  124
Eigenvectors exchange needed  125  126
Eigenvectors exchange needed  127  128
Eigenvectors exchange needed  129  130
Eigenvectors exchange needed  131  132
Eigenvectors exchange needed  133  134
Eigenvectors exchange needed  135  136
Eigenvectors exchange needed  137  138
Eigenvectors exchange needed  139  140
Eigenvectors exchange needed  141  142
Eigenvectors exchange needed  143  144
Eigenvectors exchange needed  145  146
Eigenvectors exchange needed  147  148
Eigenvectors exchange needed  149  150
Eigenvectors exchange needed  151  152
Eigenvectors exchange needed  153  154
Eigenvectors exchange needed  155  156
Eigenvectors exchange needed  157  158
Eigenvectors exchange needed  159  160
Eigenvectors exchange needed  161  162
Eigenvectors exchange needed  173  227
Eigenvectors exchange needed  173  281
Eigenvectors exchange needed  174  281
Eigenvectors exchange needed  217  271
Eigenvectors exchange needed  219  273
Eigenvectors exchange needed  221  275
Eigenvectors exchange needed  223  277
Eigenvectors exchange needed  225  279
Eigenvectors exchange needed  228  282
Eigenvectors exchange needed  230  284
Eigenvectors exchange needed  232  286
Eigenvectors exchange needed  234  288
Eigenvectors exchange needed  236  290
Eigenvectors exchange needed  238  292
Eigenvectors exchange needed  240  294
Eigenvectors exchange needed  242  296
Eigenvectors exchange needed  244  298
Eigenvectors exchange needed  246  300
Eigenvectors exchange needed  248  302
Eigenvectors exchange needed  250  304
Eigenvectors exchange needed  252  306
Eigenvectors exchange needed  254  308
Eigenvectors exchange needed  256  310
Eigenvectors exchange needed  258  312
Eigenvectors exchange needed  260  314
Eigenvectors exchange needed  262  316
Eigenvectors exchange needed  264  318
Eigenvectors exchange needed  266  320
Eigenvectors exchange needed  268  322
Eigenvectors exchange needed  270  324
Eigenvectors exchange needed  272  324
Eigenvectors exchange needed  274  324
Eigenvectors exchange needed  276  324
Eigenvectors exchange needed  278  324
Eigenvectors exchange needed  280  324
Eigenvectors exchange needed  282  283
Eigenvectors exchange needed  284  285
Eigenvectors exchange needed  286  287
Eigenvectors exchange needed  288  289
Eigenvectors exchange needed  290  291
Eigenvectors exchange needed  292  293
Eigenvectors exchange needed  294  295
Eigenvectors exchange needed  296  297
Eigenvectors exchange needed  298  299
Eigenvectors exchange needed  300  301
Eigenvectors exchange needed  302  303
Eigenvectors exchange needed  304  305
Eigenvectors exchange needed  306  307
Eigenvectors exchange needed  308  309
Eigenvectors exchange needed  310  311
Eigenvectors exchange needed  312  313
Eigenvectors exchange needed  314  315
Eigenvectors exchange needed  316  317
Eigenvectors exchange needed  320  321
Eigenvectors exchange needed  322  323
       1   0.000000000   0.000000000   0.000000000     213
        1   1   1   1   1   1   1   1   1   1   1   1   1   1   1   1   1   1
   1   1   1   1   1   1   1   1   1   1   1   1   1   1   1   1   1   1
   1   1   1   1   1   1   1   1   3   1   1   1   1   1   1   1   2   2
   2   2   2   2   2   2   2   2   2   2   2   2   2   2   2   2   2   2
   2   2   2   2   2   2   2   2   2   2   2   2   2   2   2   2   2   2
   2   2   2   2   2   2   2   2   2   2   2   2   2   2   2   2   1   1
   1   1   1   1   1   1   1   1   3   1   1   1   1   1   1   1   1   1
   1   1   1   1   1   1   1   1   1   1   1   1   1   1   1   1   1   1
   2   1   1   1   1   1   1   1   1   1   1   1   1   2   2   2   2   2
   1   2   2   2   2   2   2   2   2   2   2   2   2   2   2   2   2   2
   2   2   2   2   2   2   2   2   2   2   2   2   2   2   2   2   2   2
   2   2   2   2   2   2   2   2   2   2   1   1   2   2   1

     Saving dvscf to file. Distribute only q points, not irreducible representations.

     Calculation of q =    0.0000000   0.0000000   0.0000000

                                                                                

     bravais-lattice index     =            5
     lattice parameter (alat)  =      27.5251  a.u.
     unit-cell volume          =   15298.4507 (a.u.)^3
     number of atoms/cell      =          108
     number of atomic types    =            4
     kinetic-energy cut-off    =     150.0000  Ry
     charge density cut-off    =     900.0000  Ry
     convergence threshold     =      1.0E-14
     beta                      =       0.7000
     number of iterations used =            4
     Exchange-correlation= PBE
                           (   1   4   3   4   0   0   0)


     celldm(1)=   27.52505  celldm(2)=    0.00000  celldm(3)=    0.00000
     celldm(4)=    0.47453  celldm(5)=    0.00000  celldm(6)=    0.00000

     crystal axes: (cart. coord. in units of alat)
               a(1) = (  0.5126 -0.2959  0.8060 )  
               a(2) = (  0.0000  0.5919  0.8060 )  
               a(3) = ( -0.5126 -0.2959  0.8060 )  

     reciprocal axes: (cart. coord. in units 2 pi/alat)
               b(1) = (  0.9755 -0.5632  0.4135 )  
               b(2) = (  0.0000  1.1264  0.4135 )  
               b(3) = ( -0.9755 -0.5632  0.4135 )  


     Atoms inside the unit cell: 

     Cartesian axes

     site n.  atom      mass           positions (alat units)
        1  C      12.0106   tau(    1) = (   -0.15996   -0.26999    1.21169  )
        2  C      12.0106   tau(    2) = (    0.15996    0.26999    1.20640  )
        3  C      12.0106   tau(    3) = (    0.31380   -0.00354    1.21169  )
        4  C      12.0106   tau(    4) = (   -0.31380    0.00354    1.20640  )
        5  C      12.0106   tau(    5) = (   -0.15384    0.27353    1.21169  )
        6  C      12.0106   tau(    6) = (    0.15384   -0.27353    1.20640  )
        7  C      12.0106   tau(    7) = (   -0.14553    0.09097    0.96110  )
        8  C      12.0106   tau(    8) = (    0.14553   -0.09097    1.45699  )
        9  C      12.0106   tau(    9) = (   -0.00601   -0.17152    0.96110  )
       10  C      12.0106   tau(   10) = (    0.00601    0.17152    1.45699  )
       11  C      12.0106   tau(   11) = (    0.15155    0.08055    0.96110  )
       12  C      12.0106   tau(   12) = (   -0.15155   -0.08055    1.45699  )
       13  C      12.0106   tau(   13) = (    0.20330   -0.12041    1.53669  )
       14  C      12.0106   tau(   14) = (   -0.20330    0.12041    0.88140  )
       15  C      12.0106   tau(   15) = (    0.00263    0.23627    1.53669  )
       16  C      12.0106   tau(   16) = (   -0.00263   -0.23627    0.88140  )
       17  C      12.0106   tau(   17) = (   -0.20593   -0.11586    1.53669  )
       18  C      12.0106   tau(   18) = (    0.20593    0.11586    0.88140  )
       19  C      12.0106   tau(   19) = (    0.20997    0.35965    1.20750  )
       20  C      12.0106   tau(   20) = (   -0.20997   -0.35965    1.21059  )
       21  C      12.0106   tau(   21) = (   -0.41646    0.00202    1.20750  )
       22  C      12.0106   tau(   22) = (    0.41646   -0.00202    1.21059  )
       23  C      12.0106   tau(   23) = (    0.20648   -0.36167    1.20750  )
       24  C      12.0106   tau(   24) = (   -0.20648    0.36167    1.21059  )
       25  C      12.0106   tau(   25) = (    0.20012   -0.21165    1.56745  )
       26  C      12.0106   tau(   26) = (   -0.20012    0.21165    0.85064  )
       27  C      12.0106   tau(   27) = (    0.08324    0.27913    1.56745  )
       28  C      12.0106   tau(   28) = (   -0.08324   -0.27913    0.85064  )
       29  C      12.0106   tau(   29) = (   -0.28335   -0.06748    1.56745  )
       30  C      12.0106   tau(   30) = (    0.28335    0.06748    0.85064  )
       31  C      12.0106   tau(   31) = (    0.08064   -0.25344    0.83618  )
       32  C      12.0106   tau(   32) = (   -0.08064    0.25344    1.58191  )
       33  C      12.0106   tau(   33) = (    0.17916    0.19656    0.83618  )
       34  C      12.0106   tau(   34) = (   -0.17916   -0.19656    1.58191  )
       35  C      12.0106   tau(   35) = (   -0.25981    0.05688    0.83618  )
       36  C      12.0106   tau(   36) = (    0.25981   -0.05688    1.58191  )
       37  C      12.0106   tau(   37) = (    0.18543    0.42955    1.14593  )
       38  C      12.0106   tau(   38) = (   -0.18543   -0.42955    1.27216  )
       39  C      12.0106   tau(   39) = (   -0.46472   -0.05419    1.14593  )
       40  C      12.0106   tau(   40) = (    0.46472    0.05419    1.27216  )
       41  C      12.0106   tau(   41) = (    0.27929   -0.37536    1.14593  )
       42  C      12.0106   tau(   42) = (   -0.27929    0.37536    1.27216  )
       43  C      12.0106   tau(   43) = (   -0.46499    0.05618    1.27064  )
       44  C      12.0106   tau(   44) = (    0.46499   -0.05618    1.14745  )
       45  C      12.0106   tau(   45) = (    0.18384   -0.43079    1.27064  )
       46  C      12.0106   tau(   46) = (   -0.18384    0.43079    1.14745  )
       47  C      12.0106   tau(   47) = (    0.28115    0.37461    1.27064  )
       48  C      12.0106   tau(   48) = (   -0.28115   -0.37461    1.14745  )
       49  H       1.0075   tau(   49) = (    0.29623   -0.32112    1.09733  )
       50  H       1.0075   tau(   50) = (   -0.29623    0.32112    1.32076  )
       51  H       1.0075   tau(   51) = (    0.12998    0.41711    1.09733  )
       52  H       1.0075   tau(   52) = (   -0.12998   -0.41711    1.32076  )
       53  H       1.0075   tau(   53) = (   -0.42621   -0.09599    1.09733  )
       54  H       1.0075   tau(   54) = (    0.42621    0.09599    1.32076  )
       55  H       1.0075   tau(   55) = (    0.12720   -0.41926    1.31809  )
       56  H       1.0075   tau(   56) = (   -0.12720    0.41926    1.10000  )
       57  H       1.0075   tau(   57) = (    0.29949    0.31979    1.31809  )
       58  H       1.0075   tau(   58) = (   -0.29949   -0.31979    1.10000  )
       59  H       1.0075   tau(   59) = (   -0.42669    0.09947    1.31809  )
       60  H       1.0075   tau(   60) = (    0.42669   -0.09947    1.10000  )
       61  H       1.0075   tau(   61) = (   -0.30334   -0.00489    1.53173  )
       62  H       1.0075   tau(   62) = (    0.30334    0.00489    0.88636  )
       63  H       1.0075   tau(   63) = (    0.15591   -0.26025    1.53173  )
       64  H       1.0075   tau(   64) = (   -0.15591    0.26025    0.88636  )
       65  H       1.0075   tau(   65) = (    0.14743    0.26514    1.53173  )
       66  H       1.0075   tau(   66) = (   -0.14743   -0.26514    0.88636  )
       67  H       1.0075   tau(   67) = (    0.11861    0.23317    0.86037  )
       68  H       1.0075   tau(   68) = (   -0.11861   -0.23317    1.55771  )
       69  H       1.0075   tau(   69) = (   -0.26124   -0.01387    0.86037  )
       70  H       1.0075   tau(   70) = (    0.26124    0.01387    1.55771  )
       71  H       1.0075   tau(   71) = (    0.14263   -0.21931    0.86037  )
       72  H       1.0075   tau(   72) = (   -0.14263    0.21931    1.55771  )
       73  O      15.9990   tau(   73) = (    0.09060   -0.15006    1.42331  )
       74  O      15.9990   tau(   74) = (   -0.09060    0.15006    0.99478  )
       75  O      15.9990   tau(   75) = (    0.08465    0.15349    1.42331  )
       76  O      15.9990   tau(   76) = (   -0.08465   -0.15349    0.99478  )
       77  O      15.9990   tau(   77) = (   -0.17525   -0.00344    1.42331  )
       78  O      15.9990   tau(   78) = (    0.17525    0.00344    0.99478  )
       79  O      15.9990   tau(   79) = (    0.06987   -0.13683    0.98863  )
       80  O      15.9990   tau(   80) = (   -0.06987    0.13683    1.42946  )
       81  O      15.9990   tau(   81) = (    0.08356    0.12892    0.98863  )
       82  O      15.9990   tau(   82) = (   -0.08356   -0.12892    1.42946  )
       83  O      15.9990   tau(   83) = (   -0.15343    0.00790    0.98863  )
       84  O      15.9990   tau(   84) = (    0.15343   -0.00790    1.42946  )
       85  O      15.9990   tau(   85) = (    0.09661    0.25944    1.14657  )
       86  O      15.9990   tau(   86) = (   -0.09661   -0.25944    1.27152  )
       87  O      15.9990   tau(   87) = (   -0.27299   -0.04605    1.14657  )
       88  O      15.9990   tau(   88) = (    0.27299    0.04605    1.27152  )
       89  O      15.9990   tau(   89) = (    0.17637   -0.21339    1.14657  )
       90  O      15.9990   tau(   90) = (   -0.17637    0.21339    1.27152  )
       91  O      15.9990   tau(   91) = (   -0.27274    0.05346    1.26494  )
       92  O      15.9990   tau(   92) = (    0.27274   -0.05346    1.15315  )
       93  O      15.9990   tau(   93) = (    0.09007   -0.26293    1.26494  )
       94  O      15.9990   tau(   94) = (   -0.09007    0.26293    1.15315  )
       95  O      15.9990   tau(   95) = (    0.18267    0.20947    1.26494  )
       96  O      15.9990   tau(   96) = (   -0.18267   -0.20947    1.15315  )
       97  O      15.9990   tau(   97) = (   -0.00154   -0.12426    1.15142  )
       98  O      15.9990   tau(   98) = (    0.00154    0.12426    1.26667  )
       99  O      15.9990   tau(   99) = (    0.10838    0.06080    1.15142  )
      100  O      15.9990   tau(  100) = (   -0.10838   -0.06080    1.26667  )
      101  O      15.9990   tau(  101) = (   -0.10684    0.06346    1.15142  )
      102  O      15.9990   tau(  102) = (    0.10684   -0.06346    1.26667  )
      103  Zr     91.2240   tau(  103) = (   -0.00164   -0.14653    1.30107  )
      104  Zr     91.2240   tau(  104) = (    0.00164    0.14653    1.11701  )
      105  Zr     91.2240   tau(  105) = (    0.12772    0.07184    1.30107  )
      106  Zr     91.2240   tau(  106) = (   -0.12772   -0.07184    1.11701  )
      107  Zr     91.2240   tau(  107) = (   -0.12608    0.07469    1.30107  )
      108  Zr     91.2240   tau(  108) = (    0.12608   -0.07469    1.11701  )

     Computing dynamical matrix for 
                    q = (   0.0000000   0.0000000   0.0000000 )

      7 Sym.Ops. (with q -> -q+G )


     G cutoff =17271.8580  (  27245 G-vectors)     FFT grid: (270,270,270)
     G cutoff =11514.5720  (  14834 G-vectors)  smooth grid: (216,216,216)
     number of k points=     1

     PseudoPot. # 1 for H  read from file:
     /home/mehlhorn/pseudos/UiO-66_pbe-spn-kjpaw/H.pbe-kjpaw_psl.1.0.0.UPF
     MD5 check sum: d81a744832360e4a8af0b0b5b123bc2a
     Pseudo is Projector augmented-wave, Zval =  1.0
     Generated using &quot;atomic&quot; code by A. Dal Corso  v.6.3MaX
     Shape of augmentation charge: PSQ
     Using radial grid of  929 points,  2 beta functions with: 
                l(1) =   0
                l(2) =   0
     Q(r) pseudized with 0 coefficients 


     PseudoPot. # 2 for Zr read from file:
     /home/mehlhorn/pseudos/UiO-66_pbe-spn-kjpaw/Zr.pbe-spn-kjpaw_psl.1.0.0.UPF
     MD5 check sum: 02112c41713a0468aff2bb39ef194e36
     Pseudo is Projector augmented-wave + core cor, Zval = 12.0
     Generated using &quot;atomic&quot; code by A. Dal Corso  v.6.2.2
     Shape of augmentation charge: PSQ
     Using radial grid of 1225 points,  6 beta functions with: 
                l(1) =   0
                l(2) =   0
                l(3) =   1
                l(4) =   1
                l(5) =   2
                l(6) =   2
     Q(r) pseudized with 0 coefficients 


     PseudoPot. # 3 for C  read from file:
     /home/mehlhorn/pseudos/UiO-66_pbe-spn-kjpaw/C.pbe-n-kjpaw_psl.1.0.0.UPF
     MD5 check sum: 5f16ad9a65e90284d1d834d4ab3b0f7d
     Pseudo is Projector augmented-wave + core cor, Zval =  4.0
     Generated using &quot;atomic&quot; code by A. Dal Corso  v.6.3
     Shape of augmentation charge: PSQ
     Using radial grid of 1073 points,  4 beta functions with: 
                l(1) =   0
                l(2) =   0
                l(3) =   1
                l(4) =   1
     Q(r) pseudized with 0 coefficients 


     PseudoPot. # 4 for O  read from file:
     /home/mehlhorn/pseudos/UiO-66_pbe-spn-kjpaw/O.pbe-n-kjpaw_psl.1.0.0.UPF
     MD5 check sum: e99d9cef9b487d1ca56f5b95ecd0fd7a
     Pseudo is Projector augmented-wave + core cor, Zval =  6.0
     Generated using &quot;atomic&quot; code by A. Dal Corso  v.6.3
     Shape of augmentation charge: PSQ
     Using radial grid of 1095 points,  4 beta functions with: 
                l(1) =   0
                l(2) =   0
                l(3) =   1
                l(4) =   1
     Q(r) pseudized with 0 coefficients 


     Mode symmetry, S_6 (-3)    point group:


     Electric field:
     Dielectric constant
     Born effective charges in two ways 


     Atomic displacements:
     There are  213 irreducible representations

     Representation     1      1 modes -  To be done

     Representation     2      1 modes -  To be done

     Representation     3      1 modes -  To be done

     Representation     4      1 modes -  To be done

     Representation     5      1 modes -  To be done

     Representation     6      1 modes -  To be done

     Representation     7      1 modes -  To be done

     Representation     8      1 modes -  To be done

     Representation     9      1 modes -  To be done

     Representation    10      1 modes -  To be done

     Representation    11      1 modes -  To be done

     Representation    12      1 modes -  To be done

     Representation    13      1 modes -  To be done

     Representation    14      1 modes -  To be done

     Representation    15      1 modes -  To be done

     Representation    16      1 modes -  To be done

     Representation    17      1 modes -  To be done

     Representation    18      1 modes -  To be done

     Representation    19      1 modes -  To be done

     Representation    20      1 modes -  To be done

     Representation    21      1 modes -  To be done

     Representation    22      1 modes -  To be done

     Representation    23      1 modes -  To be done

     Representation    24      1 modes -  To be done

     Representation    25      1 modes -  To be done

     Representation    26      1 modes -  To be done

     Representation    27      1 modes -  To be done

     Representation    28      1 modes -  To be done

     Representation    29      1 modes -  To be done

     Representation    30      1 modes -  To be done

     Representation    31      1 modes -  To be done

     Representation    32      1 modes -  To be done

     Representation    33      1 modes -  To be done

     Representation    34      1 modes -  To be done

     Representation    35      1 modes -  To be done

     Representation    36      1 modes -  To be done

     Representation    37      1 modes -  To be done

     Representation    38      1 modes -  To be done

     Representation    39      1 modes -  To be done

     Representation    40      1 modes -  To be done

     Representation    41      1 modes -  To be done

     Representation    42      1 modes -  To be done

     Representation    43      1 modes -  To be done

     Representation    44      1 modes -  To be done

     Representation    45      3 modes -  To be done

     Representation    46      1 modes -  To be done

     Representation    47      1 modes -  To be done

     Representation    48      1 modes -  To be done

     Representation    49      1 modes -  To be done

     Representation    50      1 modes -  To be done

     Representation    51      1 modes -  To be done

     Representation    52      1 modes -  To be done

     Representation    53      2 modes -  To be done

     Representation    54      2 modes -  To be done

     Representation    55      2 modes -  To be done

     Representation    56      2 modes -  To be done

     Representation    57      2 modes -  To be done

     Representation    58      2 modes -  To be done

     Representation    59      2 modes -  To be done

     Representation    60      2 modes -  To be done

     Representation    61      2 modes -  To be done

     Representation    62      2 modes -  To be done

     Representation    63      2 modes -  To be done

     Representation    64      2 modes -  To be done

     Representation    65      2 modes -  To be done

     Representation    66      2 modes -  To be done

     Representation    67      2 modes -  To be done

     Representation    68      2 modes -  To be done

     Representation    69      2 modes -  To be done

     Representation    70      2 modes -  To be done

     Representation    71      2 modes -  To be done

     Representation    72      2 modes -  To be done

     Representation    73      2 modes -  To be done

     Representation    74      2 modes -  To be done

     Representation    75      2 modes -  To be done

     Representation    76      2 modes -  To be done

     Representation    77      2 modes -  To be done

     Representation    78      2 modes -  To be done

     Representation    79      2 modes -  To be done

     Representation    80      2 modes -  To be done

     Representation    81      2 modes -  To be done

     Representation    82      2 modes -  To be done

     Representation    83      2 modes -  To be done

     Representation    84      2 modes -  To be done

     Representation    85      2 modes -  To be done

     Representation    86      2 modes -  To be done

     Representation    87      2 modes -  To be done

     Representation    88      2 modes -  To be done

     Representation    89      2 modes -  To be done

     Representation    90      2 modes -  To be done

     Representation    91      2 modes -  To be done

     Representation    92      2 modes -  To be done

     Representation    93      2 modes -  To be done

     Representation    94      2 modes -  To be done

     Representation    95      2 modes -  To be done

     Representation    96      2 modes -  To be done

     Representation    97      2 modes -  To be done

     Representation    98      2 modes -  To be done

     Representation    99      2 modes -  To be done

     Representation   100      2 modes -  To be done

     Representation   101      2 modes -  To be done

     Representation   102      2 modes -  To be done

     Representation   103      2 modes -  To be done

     Representation   104      2 modes -  To be done

     Representation   105      2 modes -  To be done

     Representation   106      2 modes -  To be done

     Representation   107      1 modes -  To be done

     Representation   108      1 modes -  To be done

     Representation   109      1 modes -  To be done

     Representation   110      1 modes -  To be done

     Representation   111      1 modes -  To be done

     Representation   112      1 modes -  To be done

     Representation   113      1 modes -  To be done

     Representation   114      1 modes -  To be done

     Representation   115      1 modes -  To be done

     Representation   116      1 modes -  To be done

     Representation   117      3 modes -  To be done

     Representation   118      1 modes -  To be done

     Representation   119      1 modes -  To be done

     Representation   120      1 modes -  To be done

     Representation   121      1 modes -  To be done

     Representation   122      1 modes -  To be done

     Representation   123      1 modes -  To be done

     Representation   124      1 modes -  To be done

     Representation   125      1 modes -  To be done

     Representation   126      1 modes -  To be done

     Representation   127      1 modes -  To be done

     Representation   128      1 modes -  To be done

     Representation   129      1 modes -  To be done

     Representation   130      1 modes -  To be done

     Representation   131      1 modes -  To be done

     Representation   132      1 modes -  To be done

     Representation   133      1 modes -  To be done

     Representation   134      1 modes -  To be done

     Representation   135      1 modes -  To be done

     Representation   136      1 modes -  To be done

     Representation   137      1 modes -  To be done

     Representation   138      1 modes -  To be done

     Representation   139      1 modes -  To be done

     Representation   140      1 modes -  To be done

     Representation   141      1 modes -  To be done

     Representation   142      1 modes -  To be done

     Representation   143      1 modes -  To be done

     Representation   144      1 modes -  To be done

     Representation   145      2 modes -  To be done

     Representation   146      1 modes -  To be done

     Representation   147      1 modes -  To be done

     Representation   148      1 modes -  To be done

     Representation   149      1 modes -  To be done

     Representation   150      1 modes -  To be done

     Representation   151      1 modes -  To be done

     Representation   152      1 modes -  To be done

     Representation   153      1 modes -  To be done

     Representation   154      1 modes -  To be done

     Representation   155      1 modes -  To be done

     Representation   156      1 modes -  To be done

     Representation   157      1 modes -  To be done

     Representation   158      2 modes -  To be done

     Representation   159      2 modes -  To be done

     Representation   160      2 modes -  To be done

     Representation   161      2 modes -  To be done

     Representation   162      2 modes -  To be done

     Representation   163      1 modes -  To be done

     Representation   164      2 modes -  To be done

     Representation   165      2 modes -  To be done

     Representation   166      2 modes -  To be done

     Representation   167      2 modes -  To be done

     Representation   168      2 modes -  To be done

     Representation   169      2 modes -  To be done

     Representation   170      2 modes -  To be done

     Representation   171      2 modes -  To be done

     Representation   172      2 modes -  To be done

     Representation   173      2 modes -  To be done

     Representation   174      2 modes -  To be done

     Representation   175      2 modes -  To be done

     Representation   176      2 modes -  To be done

     Representation   177      2 modes -  To be done

     Representation   178      2 modes -  To be done

     Representation   179      2 modes -  To be done

     Representation   180      2 modes -  To be done

     Representation   181      2 modes -  To be done

     Representation   182      2 modes -  To be done

     Representation   183      2 modes -  To be done

     Representation   184      2 modes -  To be done

     Representation   185      2 modes -  To be done

     Representation   186      2 modes -  To be done

     Representation   187      2 modes -  To be done

     Representation   188      2 modes -  To be done

     Representation   189      2 modes -  To be done

     Representation   190      2 modes -  To be done

     Representation   191      2 modes -  To be done

     Representation   192      2 modes -  To be done

     Representation   193      2 modes -  To be done

     Representation   194      2 modes -  To be done

     Representation   195      2 modes -  To be done

     Representation   196      2 modes -  To be done

     Representation   197      2 modes -  To be done

     Representation   198      2 modes -  To be done

     Representation   199      2 modes -  To be done

     Representation   200      2 modes -  To be done

     Representation   201      2 modes -  To be done

     Representation   202      2 modes -  To be done

     Representation   203      2 modes -  To be done

     Representation   204      2 modes -  To be done

     Representation   205      2 modes -  To be done

     Representation   206      2 modes -  To be done

     Representation   207      2 modes -  To be done

     Representation   208      2 modes -  To be done

     Representation   209      1 modes -  To be done

     Representation   210      1 modes -  To be done

     Representation   211      2 modes -  To be done

     Representation   212      2 modes -  To be done

     Representation   213      1 modes -  To be done



     Alpha used in Ewald sum =   2.8000

     negative rho (up, down):  3.881E-05 0.000E+00
     PHONON       :  41m 4.29s CPU  41m39.17s WALL


     Electric Fields Calculation

      iter #   1 total cpu time :  5538.2 secs   av.it.:  16.0
      thresh= 1.000E-02 alpha_mix =  0.700 |ddv_scf|^2 =  2.180E-09

      iter #   2 total cpu time :  7012.1 secs   av.it.:  40.0
      thresh= 4.669E-06 alpha_mix =  0.700 |ddv_scf|^2 =  5.371E-09

      iter #   3 total cpu time :  8408.1 secs   av.it.:  38.0
      thresh= 7.329E-06 alpha_mix =  0.700 |ddv_scf|^2 =  2.127E-10

      iter #   4 total cpu time :  9859.5 secs   av.it.:  39.3
      thresh= 1.458E-06 alpha_mix =  0.700 |ddv_scf|^2 =  1.110E-10

      iter #   5 total cpu time : 11259.7 secs   av.it.:  38.0
      thresh= 1.054E-06 alpha_mix =  0.700 |ddv_scf|^2 =  9.242E-12

      iter #   6 total cpu time : 12693.1 secs   av.it.:  39.0
      thresh= 3.040E-07 alpha_mix =  0.700 |ddv_scf|^2 =  7.327E-13

      iter #   7 total cpu time : 14196.8 secs   av.it.:  41.0
      thresh= 8.560E-08 alpha_mix =  0.700 |ddv_scf|^2 =  5.122E-13

      iter #   8 total cpu time : 15645.6 secs   av.it.:  39.0
      thresh= 7.157E-08 alpha_mix =  0.700 |ddv_scf|^2 =  1.281E-13

      iter #   9 total cpu time : 17059.4 secs   av.it.:  38.0
      thresh= 3.579E-08 alpha_mix =  0.700 |ddv_scf|^2 =  6.472E-15

     End of electric fields calculation

          Dielectric constant in cartesian axis 

          (       2.192900914      -0.000000045      -0.000000000 )
          (       0.000000045       2.192900914       0.000000000 )
          (      -0.000000000       0.000000000       2.095773673 )

          Effective charges (d Force / dE) in cartesian axis without acoustic sum rule applied (asr)

           atom    1  C     Mean Z*:        2.09363
      Ex  (        1.74364        1.21058        0.90406 )
      Ey  (        1.19597        3.17164       -0.42437 )
      Ez  (        0.83616       -0.43841        1.36562 )
           atom    2  C     Mean Z*:        2.09363
      Ex  (        1.74364        1.21058        0.90406 )
      Ey  (        1.19597        3.17164       -0.42437 )
      Ez  (        0.83616       -0.43841        1.36562 )
           atom    3  C     Mean Z*:        2.09363
      Ex  (        3.85671        0.02401       -0.08452 )
      Ey  (        0.00940        1.05857        0.99513 )
      Ez  (       -0.03841        0.94334        1.36562 )
           atom    4  C     Mean Z*:        2.09363
      Ex  (        3.85671        0.02401       -0.08452 )
      Ey  (        0.00940        1.05857        0.99513 )
      Ez  (       -0.03841        0.94334        1.36562 )
           atom    5  C     Mean Z*:        2.09363
      Ex  (        1.77257       -1.21268       -0.81955 )
      Ey  (       -1.22729        3.14271       -0.57076 )
      Ez  (       -0.79775       -0.50493        1.36562 )
           atom    6  C     Mean Z*:        2.09363
      Ex  (        1.77257       -1.21268       -0.81955 )
      Ey  (       -1.22729        3.14271       -0.57076 )
      Ez  (       -0.79775       -0.50493        1.36562 )
           atom    7  C     Mean Z*:        2.02438
      Ex  (        1.63936        0.23202        1.44605 )
      Ey  (        0.14180        2.18896       -0.67925 )
      Ez  (        1.55408       -0.82960        2.24481 )
           atom    8  C     Mean Z*:        2.02438
      Ex  (        1.63936        0.23202        1.44605 )
      Ey  (        0.14180        2.18896       -0.67925 )
      Ez  (        1.55408       -0.82960        2.24481 )
           atom    9  C     Mean Z*:        2.02438
      Ex  (        2.21343        0.18963       -0.13478 )
      Ey  (        0.09942        1.61489        1.59194 )
      Ez  (       -0.05859        1.76068        2.24481 )
           atom   10  C     Mean Z*:        2.02438
      Ex  (        2.21343        0.18963       -0.13478 )
      Ey  (        0.09942        1.61489        1.59194 )
      Ez  (       -0.05859        1.76068        2.24481 )
           atom   11  C     Mean Z*:        2.02438
      Ex  (        1.88969       -0.28633       -1.31127 )
      Ey  (       -0.37655        1.93863       -0.91269 )
      Ez  (       -1.49550       -0.93108        2.24481 )
           atom   12  C     Mean Z*:        2.02438
      Ex  (        1.88969       -0.28633       -1.31127 )
      Ey  (       -0.37655        1.93863       -0.91269 )
      Ez  (       -1.49550       -0.93108        2.24481 )
           atom   13  C     Mean Z*:       -0.35712
      Ex  (       -0.32283        0.14791       -0.44094 )
      Ey  (        0.14835       -0.12301        0.24814 )
      Ez  (       -0.45879        0.25987       -0.62553 )
           atom   14  C     Mean Z*:       -0.35712
      Ex  (       -0.32283        0.14791       -0.44094 )
      Ey  (        0.14835       -0.12301        0.24814 )
      Ez  (       -0.45879        0.25987       -0.62553 )
           atom   15  C     Mean Z*:       -0.35712
      Ex  (       -0.04468        0.01224        0.00557 )
      Ey  (        0.01268       -0.40116       -0.50593 )
      Ez  (        0.00434       -0.52726       -0.62553 )
           atom   16  C     Mean Z*:       -0.35712
      Ex  (       -0.04468        0.01224        0.00557 )
      Ey  (        0.01268       -0.40116       -0.50593 )
      Ez  (        0.00434       -0.52726       -0.62553 )
           atom   17  C     Mean Z*:       -0.35712
      Ex  (       -0.30125       -0.16081        0.43536 )
      Ey  (       -0.16037       -0.14459        0.25779 )
      Ez  (        0.45445        0.26739       -0.62553 )
           atom   18  C     Mean Z*:       -0.35712
      Ex  (       -0.30125       -0.16081        0.43536 )
      Ey  (       -0.16037       -0.14459        0.25779 )
      Ez  (        0.45445        0.26739       -0.62553 )
           atom   19  C     Mean Z*:       -0.38472
      Ex  (       -0.28179       -0.48031       -0.02831 )
      Ey  (       -0.47488       -0.85899       -0.01122 )
      Ez  (        0.00061       -0.00807       -0.01337 )
           atom   20  C     Mean Z*:       -0.38472
      Ex  (       -0.28179       -0.48031       -0.02831 )
      Ey  (       -0.47488       -0.85899       -0.01122 )
      Ez  (        0.00061       -0.00807       -0.01337 )
           atom   21  C     Mean Z*:       -0.38472
      Ex  (       -1.12830       -0.01385        0.02387 )
      Ey  (       -0.00843       -0.01248       -0.01891 )
      Ez  (        0.00668        0.00456       -0.01337 )
           atom   22  C     Mean Z*:       -0.38472
      Ex  (       -1.12830       -0.01385        0.02387 )
      Ey  (       -0.00843       -0.01248       -0.01891 )
      Ez  (        0.00668        0.00456       -0.01337 )
           atom   23  C     Mean Z*:       -0.38472
      Ex  (       -0.30108        0.48602        0.00444 )
      Ey  (        0.49144       -0.83969        0.03013 )
      Ez  (       -0.00729        0.00350       -0.01337 )
           atom   24  C     Mean Z*:       -0.38472
      Ex  (       -0.30108        0.48602        0.00444 )
      Ey  (        0.49144       -0.83969        0.03013 )
      Ez  (       -0.00729        0.00350       -0.01337 )
           atom   25  C     Mean Z*:       -0.06410
      Ex  (       -0.07820       -0.01423        0.06648 )
      Ey  (        0.14244       -0.03676        0.12851 )
      Ez  (        0.00472       -0.04287       -0.07735 )
           atom   26  C     Mean Z*:       -0.06410
      Ex  (       -0.07820       -0.01423        0.06648 )
      Ey  (        0.14244       -0.03676        0.12851 )
      Ez  (        0.00472       -0.04287       -0.07735 )
           atom   27  C     Mean Z*:       -0.06410
      Ex  (        0.00840       -0.09244       -0.14453 )
      Ey  (        0.06423       -0.12336       -0.00669 )
      Ez  (        0.03477        0.02552       -0.07735 )
           atom   28  C     Mean Z*:       -0.06410
      Ex  (        0.00840       -0.09244       -0.14453 )
      Ey  (        0.06423       -0.12336       -0.00669 )
      Ez  (        0.03477        0.02552       -0.07735 )
           atom   29  C     Mean Z*:       -0.06410
      Ex  (       -0.10264       -0.12834        0.07806 )
      Ey  (        0.02833       -0.01232       -0.12183 )
      Ez  (       -0.03948        0.01735       -0.07735 )
           atom   30  C     Mean Z*:       -0.06410
      Ex  (       -0.10264       -0.12834        0.07806 )
      Ey  (        0.02833       -0.01232       -0.12183 )
      Ez  (       -0.03948        0.01735       -0.07735 )
           atom   31  C     Mean Z*:       -0.06763
      Ex  (       -0.00695        0.11731        0.12324 )
      Ey  (       -0.02133       -0.07425        0.03423 )
      Ez  (       -0.06420        0.00550       -0.12169 )
           atom   32  C     Mean Z*:       -0.06763
      Ex  (       -0.00695        0.11731        0.12324 )
      Ey  (       -0.02133       -0.07425        0.03423 )
      Ez  (       -0.06420        0.00550       -0.12169 )
           atom   33  C     Mean Z*:       -0.06763
      Ex  (       -0.01587        0.01619       -0.09127 )
      Ey  (       -0.12246       -0.06534        0.08962 )
      Ez  (        0.02733       -0.05835       -0.12169 )
           atom   34  C     Mean Z*:       -0.06763
      Ex  (       -0.01587        0.01619       -0.09127 )
      Ey  (       -0.12246       -0.06534        0.08962 )
      Ez  (        0.02733       -0.05835       -0.12169 )
           atom   35  C     Mean Z*:       -0.06763
      Ex  (       -0.09898        0.07447       -0.03197 )
      Ey  (       -0.06418        0.01778       -0.12385 )
      Ez  (        0.03687        0.05285       -0.12169 )
           atom   36  C     Mean Z*:       -0.06763
      Ex  (       -0.09898        0.07447       -0.03197 )
      Ey  (       -0.06418        0.01778       -0.12385 )
      Ez  (        0.03687        0.05285       -0.12169 )
           atom   37  C     Mean Z*:       -0.06308
      Ex  (       -0.03636        0.10030        0.02985 )
      Ey  (       -0.06959       -0.10835       -0.06895 )
      Ez  (        0.11272        0.08857       -0.04453 )
           atom   38  C     Mean Z*:       -0.06308
      Ex  (       -0.03636        0.10030        0.02985 )
      Ey  (       -0.06959       -0.10835       -0.06895 )
      Ez  (        0.11272        0.08857       -0.04453 )
           atom   39  C     Mean Z*:       -0.06308
      Ex  (       -0.07705        0.04609        0.04479 )
      Ey  (       -0.12379       -0.06765        0.06032 )
      Ez  (       -0.13306        0.05333       -0.04453 )
           atom   40  C     Mean Z*:       -0.06308
      Ex  (       -0.07705        0.04609        0.04479 )
      Ey  (       -0.12379       -0.06765        0.06032 )
      Ez  (       -0.13306        0.05333       -0.04453 )
           atom   41  C     Mean Z*:       -0.06308
      Ex  (       -0.10365        0.10844       -0.07464 )
      Ey  (       -0.06145       -0.04106        0.00862 )
      Ez  (        0.02035       -0.14190       -0.04453 )
           atom   42  C     Mean Z*:       -0.06308
      Ex  (       -0.10365        0.10844       -0.07464 )
      Ey  (       -0.06145       -0.04106        0.00862 )
      Ez  (        0.02035       -0.14190       -0.04453 )
           atom   43  C     Mean Z*:       -0.05975
      Ex  (       -0.06916       -0.04343       -0.05232 )
      Ey  (        0.12614       -0.06052        0.06045 )
      Ez  (        0.12933        0.05991       -0.04958 )
           atom   44  C     Mean Z*:       -0.05975
      Ex  (       -0.06916       -0.04343       -0.05232 )
      Ey  (        0.12614       -0.06052        0.06045 )
      Ez  (        0.12933        0.05991       -0.04958 )
           atom   45  C     Mean Z*:       -0.05975
      Ex  (       -0.02686       -0.10172       -0.02619 )
      Ey  (        0.06785       -0.10282       -0.07554 )
      Ez  (       -0.11655        0.08205       -0.04958 )
           atom   46  C     Mean Z*:       -0.05975
      Ex  (       -0.02686       -0.10172       -0.02619 )
      Ey  (        0.06785       -0.10282       -0.07554 )
      Ez  (       -0.11655        0.08205       -0.04958 )
           atom   47  C     Mean Z*:       -0.05975
      Ex  (       -0.09850       -0.10921        0.07852 )
      Ey  (        0.06037       -0.03118        0.01509 )
      Ez  (       -0.01278       -0.14196       -0.04958 )
           atom   48  C     Mean Z*:       -0.05975
      Ex  (       -0.09850       -0.10921        0.07852 )
      Ey  (        0.06037       -0.03118        0.01509 )
      Ez  (       -0.01278       -0.14196       -0.04958 )
           atom   49  H     Mean Z*:        0.09686
      Ex  (        0.14091       -0.03063        0.03870 )
      Ey  (       -0.05090        0.08680        0.09410 )
      Ez  (        0.04517        0.07279        0.06287 )
           atom   50  H     Mean Z*:        0.09686
      Ex  (        0.14091       -0.03063        0.03870 )
      Ey  (       -0.05090        0.08680        0.09410 )
      Ez  (        0.04517        0.07279        0.06287 )
           atom   51  H     Mean Z*:        0.09686
      Ex  (        0.06502        0.00709       -0.10085 )
      Ey  (       -0.01318        0.16269       -0.01353 )
      Ez  (       -0.08562        0.00272        0.06287 )
           atom   52  H     Mean Z*:        0.09686
      Ex  (        0.06502        0.00709       -0.10085 )
      Ey  (       -0.01318        0.16269       -0.01353 )
      Ez  (       -0.08562        0.00272        0.06287 )
           atom   53  H     Mean Z*:        0.09686
      Ex  (        0.13563        0.05395        0.06215 )
      Ey  (        0.03368        0.09208       -0.08057 )
      Ez  (        0.04045       -0.07551        0.06287 )
           atom   54  H     Mean Z*:        0.09686
      Ex  (        0.13563        0.05395        0.06215 )
      Ey  (        0.03368        0.09208       -0.08057 )
      Ez  (        0.04045       -0.07551        0.06287 )
           atom   55  H     Mean Z*:        0.09615
      Ex  (        0.05962       -0.00444        0.09856 )
      Ey  (        0.01744        0.16448       -0.00968 )
      Ez  (        0.08722        0.00579        0.06436 )
           atom   56  H     Mean Z*:        0.09615
      Ex  (        0.05962       -0.00444        0.09856 )
      Ey  (        0.01744        0.16448       -0.00968 )
      Ez  (        0.08722        0.00579        0.06436 )
           atom   57  H     Mean Z*:        0.09615
      Ex  (        0.14389        0.03122       -0.04090 )
      Ey  (        0.05309        0.08021        0.09020 )
      Ez  (       -0.04862        0.07264        0.06436 )
           atom   58  H     Mean Z*:        0.09615
      Ex  (        0.14389        0.03122       -0.04090 )
      Ey  (        0.05309        0.08021        0.09020 )
      Ez  (       -0.04862        0.07264        0.06436 )
           atom   59  H     Mean Z*:        0.09615
      Ex  (        0.13263       -0.05959       -0.05766 )
      Ey  (       -0.03772        0.09146       -0.08052 )
      Ez  (       -0.03860       -0.07843        0.06436 )
           atom   60  H     Mean Z*:        0.09615
      Ex  (        0.13263       -0.05959       -0.05766 )
      Ey  (       -0.03772        0.09146       -0.08052 )
      Ez  (       -0.03860       -0.07843        0.06436 )
           atom   61  H     Mean Z*:        0.09400
      Ex  (        0.13932        0.05392       -0.01859 )
      Ey  (        0.06557        0.01461        0.04831 )
      Ez  (       -0.03762        0.06568        0.12806 )
           atom   62  H     Mean Z*:        0.09400
      Ex  (        0.13932        0.05392       -0.01859 )
      Ey  (        0.06557        0.01461        0.04831 )
      Ez  (       -0.03762        0.06568        0.12806 )
           atom   63  H     Mean Z*:        0.09400
      Ex  (        0.09753       -0.08970       -0.03254 )
      Ey  (       -0.07805        0.05640       -0.04025 )
      Ez  (       -0.03808       -0.06542        0.12806 )
           atom   64  H     Mean Z*:        0.09400
      Ex  (        0.09753       -0.08970       -0.03254 )
      Ey  (       -0.07805        0.05640       -0.04025 )
      Ez  (       -0.03808       -0.06542        0.12806 )
           atom   65  H     Mean Z*:        0.09400
      Ex  (       -0.00595        0.01830        0.05113 )
      Ey  (        0.02996        0.15988       -0.00806 )
      Ez  (        0.07569       -0.00026        0.12806 )
           atom   66  H     Mean Z*:        0.09400
      Ex  (       -0.00595        0.01830        0.05113 )
      Ey  (        0.02996        0.15988       -0.00806 )
      Ez  (        0.07569       -0.00026        0.12806 )
           atom   67  H     Mean Z*:        0.09453
      Ex  (        0.04626        0.09139        0.02126 )
      Ey  (        0.07427        0.08218       -0.02343 )
      Ez  (        0.04285       -0.03368        0.15515 )
           atom   68  H     Mean Z*:        0.09453
      Ex  (        0.04626        0.09139        0.02126 )
      Ey  (        0.07427        0.08218       -0.02343 )
      Ez  (        0.04285       -0.03368        0.15515 )
           atom   69  H     Mean Z*:        0.09453
      Ex  (        0.14493       -0.01730        0.00966 )
      Ey  (       -0.03442       -0.01649        0.03013 )
      Ez  (        0.00774        0.05395        0.15515 )
           atom   70  H     Mean Z*:        0.09453
      Ex  (        0.14493       -0.01730        0.00966 )
      Ey  (       -0.03442       -0.01649        0.03013 )
      Ez  (        0.00774        0.05395        0.15515 )
           atom   71  H     Mean Z*:        0.09453
      Ex  (        0.00147       -0.04841       -0.03092 )
      Ey  (       -0.06553        0.12697       -0.00670 )
      Ez  (       -0.05059       -0.02027        0.15515 )
           atom   72  H     Mean Z*:        0.09453
      Ex  (        0.00147       -0.04841       -0.03092 )
      Ey  (       -0.06553        0.12697       -0.00670 )
      Ez  (       -0.05059       -0.02027        0.15515 )
           atom   73  O     Mean Z*:       -1.57270
      Ex  (       -1.77873       -0.41562       -1.20588 )
      Ey  (       -0.35277       -0.98392       -0.11998 )
      Ez  (       -1.33071       -0.26652       -1.95544 )
           atom   74  O     Mean Z*:       -1.57270
      Ex  (       -1.77873       -0.41562       -1.20588 )
      Ey  (       -0.35277       -0.98392       -0.11998 )
      Ez  (       -1.33071       -0.26652       -1.95544 )
           atom   75  O     Mean Z*:       -1.57270
      Ex  (       -1.51534        0.50484        0.70684 )
      Ey  (        0.56769       -1.24731       -0.98434 )
      Ez  (        0.89617       -1.01917       -1.95544 )
           atom   76  O     Mean Z*:       -1.57270
      Ex  (       -1.51534        0.50484        0.70684 )
      Ey  (        0.56769       -1.24731       -0.98434 )
      Ez  (        0.89617       -1.01917       -1.95544 )
           atom   77  O     Mean Z*:       -1.57270
      Ex  (       -0.84990       -0.18349        0.49904 )
      Ey  (       -0.12064       -1.91275        1.10431 )
      Ez  (        0.43454        1.28569       -1.95544 )
           atom   78  O     Mean Z*:       -1.57270
      Ex  (       -0.84990       -0.18349        0.49904 )
      Ey  (       -0.12064       -1.91275        1.10431 )
      Ez  (        0.43454        1.28569       -1.95544 )
           atom   79  O     Mean Z*:       -1.62211
      Ex  (       -1.51533       -0.69660       -0.63723 )
      Ey  (       -0.76851       -1.38573       -1.02717 )
      Ez  (       -0.88391       -1.07540       -1.96525 )
           atom   80  O     Mean Z*:       -1.62211
      Ex  (       -1.51533       -0.69660       -0.63723 )
      Ey  (       -0.76851       -1.38573       -1.02717 )
      Ez  (       -0.88391       -1.07540       -1.96525 )
           atom   81  O     Mean Z*:       -1.62211
      Ex  (       -2.05255        0.45835        1.20817 )
      Ey  (        0.38645       -0.84852       -0.03827 )
      Ez  (        1.37328       -0.22779       -1.96525 )
           atom   82  O     Mean Z*:       -1.62211
      Ex  (       -2.05255        0.45835        1.20817 )
      Ey  (        0.38645       -0.84852       -0.03827 )
      Ez  (        1.37328       -0.22779       -1.96525 )
           atom   83  O     Mean Z*:       -1.62211
      Ex  (       -0.78372        0.34611       -0.57094 )
      Ey  (        0.27421       -2.11735        1.06544 )
      Ez  (       -0.48937        1.30319       -1.96525 )
           atom   84  O     Mean Z*:       -1.62211
      Ex  (       -0.78372        0.34611       -0.57094 )
      Ey  (        0.27421       -2.11735        1.06544 )
      Ez  (       -0.48937        1.30319       -1.96525 )
           atom   85  O     Mean Z*:       -1.66172
      Ex  (       -2.06257       -1.17678       -0.88100 )
      Ey  (       -1.24889       -1.91116       -0.50902 )
      Ez  (       -0.75369       -0.37972       -1.01143 )
           atom   86  O     Mean Z*:       -1.66172
      Ex  (       -2.06257       -1.17678       -0.88100 )
      Ey  (       -1.24889       -1.91116       -0.50902 )
      Ez  (       -0.75369       -0.37972       -1.01143 )
           atom   87  O     Mean Z*:       -1.66172
      Ex  (       -2.99936        0.70803        0.88133 )
      Ey  (        0.63593       -0.97437       -0.50846 )
      Ez  (        0.70569       -0.46286       -1.01143 )
           atom   88  O     Mean Z*:       -1.66172
      Ex  (       -2.99936        0.70803        0.88133 )
      Ey  (        0.63593       -0.97437       -0.50846 )
      Ez  (        0.70569       -0.46286       -1.01143 )
           atom   89  O     Mean Z*:       -1.66172
      Ex  (       -0.89866        0.57691       -0.00032 )
      Ey  (        0.50480       -3.07506        1.01748 )
      Ez  (        0.04800        0.84257       -1.01143 )
           atom   90  O     Mean Z*:       -1.66172
      Ex  (       -0.89866        0.57691       -0.00032 )
      Ey  (        0.50480       -3.07506        1.01748 )
      Ez  (        0.04800        0.84257       -1.01143 )
           atom   91  O     Mean Z*:       -1.62063
      Ex  (       -2.87287       -0.67032       -0.84324 )
      Ey  (       -0.62048       -0.98079       -0.51249 )
      Ez  (       -0.67334       -0.45872       -1.00823 )
           atom   92  O     Mean Z*:       -1.62063
      Ex  (       -2.87287       -0.67032       -0.84324 )
      Ey  (       -0.62048       -0.98079       -0.51249 )
      Ez  (       -0.67334       -0.45872       -1.00823 )
           atom   93  O     Mean Z*:       -1.62063
      Ex  (       -2.01274        1.11707        0.86545 )
      Ey  (        1.16691       -1.84092       -0.47402 )
      Ez  (        0.73393       -0.35377       -1.00823 )
           atom   94  O     Mean Z*:       -1.62063
      Ex  (       -2.01274        1.11707        0.86545 )
      Ey  (        1.16691       -1.84092       -0.47402 )
      Ez  (        0.73393       -0.35377       -1.00823 )
           atom   95  O     Mean Z*:       -1.62063
      Ex  (       -0.89488       -0.52151       -0.02221 )
      Ey  (       -0.47167       -2.95878        0.98651 )
      Ez  (       -0.06059        0.81249       -1.00823 )
           atom   96  O     Mean Z*:       -1.62063
      Ex  (       -0.89488       -0.52151       -0.02221 )
      Ey  (       -0.47167       -2.95878        0.98651 )
      Ez  (       -0.06059        0.81249       -1.00823 )
           atom   97  O     Mean Z*:       -2.05377
      Ex  (       -2.87871        0.05706       -0.03181 )
      Ey  (        0.04156       -1.37754        0.09263 )
      Ez  (        0.00884        0.23693       -1.90506 )
           atom   98  O     Mean Z*:       -2.05377
      Ex  (       -2.87871        0.05706       -0.03181 )
      Ey  (        0.04156       -1.37754        0.09263 )
      Ez  (        0.00884        0.23693       -1.90506 )
           atom   99  O     Mean Z*:       -2.05377
      Ex  (       -1.71013        0.63312       -0.06431 )
      Ey  (        0.61762       -2.54612       -0.07386 )
      Ez  (       -0.20960       -0.11081       -1.90506 )
           atom  100  O     Mean Z*:       -2.05377
      Ex  (       -1.71013        0.63312       -0.06431 )
      Ey  (        0.61762       -2.54612       -0.07386 )
      Ez  (       -0.20960       -0.11081       -1.90506 )
           atom  101  O     Mean Z*:       -2.05377
      Ex  (       -1.79553       -0.66693        0.09612 )
      Ey  (       -0.68243       -2.46071       -0.01876 )
      Ez  (        0.20077       -0.12612       -1.90506 )
           atom  102  O     Mean Z*:       -2.05377
      Ex  (       -1.79553       -0.66693        0.09612 )
      Ey  (       -0.68243       -2.46071       -0.01876 )
      Ez  (        0.20077       -0.12612       -1.90506 )
           atom  103  Zr    Mean Z*:        4.97307
      Ex  (        5.76361       -0.05370       -0.10065 )
      Ey  (        0.08581        4.38615       -0.07149 )
      Ez  (        0.05852        0.22400        4.76945 )
           atom  104  Zr    Mean Z*:        4.97307
      Ex  (        5.76361       -0.05370       -0.10065 )
      Ey  (        0.08581        4.38615       -0.07149 )
      Ez  (        0.05852        0.22400        4.76945 )
           atom  105  Zr    Mean Z*:        4.97307
      Ex  (        4.74442       -0.67424        0.11224 )
      Ey  (       -0.53473        5.40534       -0.05142 )
      Ez  (       -0.22325       -0.06132        4.76945 )
           atom  106  Zr    Mean Z*:        4.97307
      Ex  (        4.74442       -0.67424        0.11224 )
      Ey  (       -0.53473        5.40534       -0.05142 )
      Ez  (       -0.22325       -0.06132        4.76945 )
           atom  107  Zr    Mean Z*:        4.97307
      Ex  (        4.71661        0.51867       -0.01158 )
      Ey  (        0.65818        5.43315        0.12291 )
      Ez  (        0.16473       -0.16268        4.76945 )
           atom  108  Zr    Mean Z*:        4.97307
      Ex  (        4.71661        0.51867       -0.01158 )
      Ey  (        0.65818        5.43315        0.12291 )
      Ez  (        0.16473       -0.16268        4.76945 )

          Effective charges Sum: Mean:       -0.32825
             -0.53095        0.02274        0.00000
             -0.02274       -0.53095       -0.00000
             -0.00000       -0.00000        0.07714

          Effective charges (d Force / dE) in cartesian axis with asr applied: 
           atom    1  C     Mean Z*:        2.09667
      E*x (        1.74855        1.21079        0.90406 )
      E*y (        1.19576        3.17656       -0.42437 )
      E*z (        0.83616       -0.43841        1.36490 )
           atom    2  C     Mean Z*:        2.09667
      E*x (        1.74855        1.21079        0.90406 )
      E*y (        1.19576        3.17656       -0.42437 )
      E*z (        0.83616       -0.43841        1.36490 )
           atom    3  C     Mean Z*:        2.09667
      E*x (        3.86162        0.02422       -0.08452 )
      E*y (        0.00919        1.06348        0.99513 )
      E*z (       -0.03841        0.94334        1.36490 )
           atom    4  C     Mean Z*:        2.09667
      E*x (        3.86162        0.02422       -0.08452 )
      E*y (        0.00919        1.06348        0.99513 )
      E*z (       -0.03841        0.94334        1.36490 )
           atom    5  C     Mean Z*:        2.09667
      E*x (        1.77749       -1.21247       -0.81955 )
      E*y (       -1.22750        3.14762       -0.57076 )
      E*z (       -0.79775       -0.50493        1.36490 )
           atom    6  C     Mean Z*:        2.09667
      E*x (        1.77749       -1.21247       -0.81955 )
      E*y (       -1.22750        3.14762       -0.57076 )
      E*z (       -0.79775       -0.50493        1.36490 )
           atom    7  C     Mean Z*:        2.02742
      E*x (        1.64428        0.23223        1.44605 )
      E*y (        0.14159        2.19388       -0.67925 )
      E*z (        1.55408       -0.82960        2.24410 )
           atom    8  C     Mean Z*:        2.02742
      E*x (        1.64428        0.23223        1.44605 )
      E*y (        0.14159        2.19388       -0.67925 )
      E*z (        1.55408       -0.82960        2.24410 )
           atom    9  C     Mean Z*:        2.02742
      E*x (        2.21835        0.18985       -0.13478 )
      E*y (        0.09921        1.61981        1.59194 )
      E*z (       -0.05859        1.76068        2.24410 )
           atom   10  C     Mean Z*:        2.02742
      E*x (        2.21835        0.18985       -0.13478 )
      E*y (        0.09921        1.61981        1.59194 )
      E*z (       -0.05859        1.76068        2.24410 )
           atom   11  C     Mean Z*:        2.02742
      E*x (        1.89461       -0.28612       -1.31127 )
      E*y (       -0.37676        1.94355       -0.91269 )
      E*z (       -1.49550       -0.93108        2.24410 )
           atom   12  C     Mean Z*:        2.02742
      E*x (        1.89461       -0.28612       -1.31127 )
      E*y (       -0.37676        1.94355       -0.91269 )
      E*z (       -1.49550       -0.93108        2.24410 )
           atom   13  C     Mean Z*:       -0.35408
      E*x (       -0.31791        0.14812       -0.44094 )
      E*y (        0.14814       -0.11809        0.24814 )
      E*z (       -0.45879        0.25987       -0.62625 )
           atom   14  C     Mean Z*:       -0.35408
      E*x (       -0.31791        0.14812       -0.44094 )
      E*y (        0.14814       -0.11809        0.24814 )
      E*z (       -0.45879        0.25987       -0.62625 )
           atom   15  C     Mean Z*:       -0.35408
      E*x (       -0.03976        0.01245        0.00557 )
      E*y (        0.01247       -0.39624       -0.50593 )
      E*z (        0.00434       -0.52726       -0.62625 )
           atom   16  C     Mean Z*:       -0.35408
      E*x (       -0.03976        0.01245        0.00557 )
      E*y (        0.01247       -0.39624       -0.50593 )
      E*z (        0.00434       -0.52726       -0.62625 )
           atom   17  C     Mean Z*:       -0.35408
      E*x (       -0.29633       -0.16060        0.43536 )
      E*y (       -0.16058       -0.13967        0.25779 )
      E*z (        0.45445        0.26739       -0.62625 )
           atom   18  C     Mean Z*:       -0.35408
      E*x (       -0.29633       -0.16060        0.43536 )
      E*y (       -0.16058       -0.13967        0.25779 )
      E*z (        0.45445        0.26739       -0.62625 )
           atom   19  C     Mean Z*:       -0.38168
      E*x (       -0.27687       -0.48009       -0.02831 )
      E*y (       -0.47509       -0.85407       -0.01122 )
      E*z (        0.00061       -0.00807       -0.01408 )
           atom   20  C     Mean Z*:       -0.38168
      E*x (       -0.27687       -0.48009       -0.02831 )
      E*y (       -0.47509       -0.85407       -0.01122 )
      E*z (        0.00061       -0.00807       -0.01408 )
           atom   21  C     Mean Z*:       -0.38168
      E*x (       -1.12338       -0.01364        0.02387 )
      E*y (       -0.00864       -0.00756       -0.01891 )
      E*z (        0.00668        0.00456       -0.01408 )
           atom   22  C     Mean Z*:       -0.38168
      E*x (       -1.12338       -0.01364        0.02387 )
      E*y (       -0.00864       -0.00756       -0.01891 )
      E*z (        0.00668        0.00456       -0.01408 )
           atom   23  C     Mean Z*:       -0.38168
      E*x (       -0.29617        0.48623        0.00444 )
      E*y (        0.49123       -0.83478        0.03013 )
      E*z (       -0.00729        0.00350       -0.01408 )
           atom   24  C     Mean Z*:       -0.38168
      E*x (       -0.29617        0.48623        0.00444 )
      E*y (        0.49123       -0.83478        0.03013 )
      E*z (       -0.00729        0.00350       -0.01408 )
           atom   25  C     Mean Z*:       -0.06106
      E*x (       -0.07329       -0.01402        0.06648 )
      E*y (        0.14223       -0.03184        0.12851 )
      E*z (        0.00472       -0.04287       -0.07806 )
           atom   26  C     Mean Z*:       -0.06106
      E*x (       -0.07329       -0.01402        0.06648 )
      E*y (        0.14223       -0.03184        0.12851 )
      E*z (        0.00472       -0.04287       -0.07806 )
           atom   27  C     Mean Z*:       -0.06106
      E*x (        0.01332       -0.09223       -0.14453 )
      E*y (        0.06402       -0.11845       -0.00669 )
      E*z (        0.03477        0.02552       -0.07806 )
           atom   28  C     Mean Z*:       -0.06106
      E*x (        0.01332       -0.09223       -0.14453 )
      E*y (        0.06402       -0.11845       -0.00669 )
      E*z (        0.03477        0.02552       -0.07806 )
           atom   29  C     Mean Z*:       -0.06106
      E*x (       -0.09772       -0.12813        0.07806 )
      E*y (        0.02812       -0.00741       -0.12183 )
      E*z (       -0.03948        0.01735       -0.07806 )
           atom   30  C     Mean Z*:       -0.06106
      E*x (       -0.09772       -0.12813        0.07806 )
      E*y (        0.02812       -0.00741       -0.12183 )
      E*z (       -0.03948        0.01735       -0.07806 )
           atom   31  C     Mean Z*:       -0.06459
      E*x (       -0.00204        0.11752        0.12324 )
      E*y (       -0.02155       -0.06933        0.03423 )
      E*z (       -0.06420        0.00550       -0.12240 )
           atom   32  C     Mean Z*:       -0.06459
      E*x (       -0.00204        0.11752        0.12324 )
      E*y (       -0.02155       -0.06933        0.03423 )
      E*z (       -0.06420        0.00550       -0.12240 )
           atom   33  C     Mean Z*:       -0.06459
      E*x (       -0.01095        0.01640       -0.09127 )
      E*y (       -0.12267       -0.06042        0.08962 )
      E*z (        0.02733       -0.05835       -0.12240 )
           atom   34  C     Mean Z*:       -0.06459
      E*x (       -0.01095        0.01640       -0.09127 )
      E*y (       -0.12267       -0.06042        0.08962 )
      E*z (        0.02733       -0.05835       -0.12240 )
           atom   35  C     Mean Z*:       -0.06459
      E*x (       -0.09407        0.07468       -0.03197 )
      E*y (       -0.06439        0.02270       -0.12385 )
      E*z (        0.03687        0.05285       -0.12240 )
           atom   36  C     Mean Z*:       -0.06459
      E*x (       -0.09407        0.07468       -0.03197 )
      E*y (       -0.06439        0.02270       -0.12385 )
      E*z (        0.03687        0.05285       -0.12240 )
           atom   37  C     Mean Z*:       -0.06004
      E*x (       -0.03144        0.10051        0.02985 )
      E*y (       -0.06980       -0.10343       -0.06895 )
      E*z (        0.11272        0.08857       -0.04524 )
           atom   38  C     Mean Z*:       -0.06004
      E*x (       -0.03144        0.10051        0.02985 )
      E*y (       -0.06980       -0.10343       -0.06895 )
      E*z (        0.11272        0.08857       -0.04524 )
           atom   39  C     Mean Z*:       -0.06004
      E*x (       -0.07214        0.04630        0.04479 )
      E*y (       -0.12401       -0.06274        0.06032 )
      E*z (       -0.13306        0.05333       -0.04524 )
           atom   40  C     Mean Z*:       -0.06004
      E*x (       -0.07214        0.04630        0.04479 )
      E*y (       -0.12401       -0.06274        0.06032 )
      E*z (       -0.13306        0.05333       -0.04524 )
           atom   41  C     Mean Z*:       -0.06004
      E*x (       -0.09873        0.10865       -0.07464 )
      E*y (       -0.06166       -0.03614        0.00862 )
      E*z (        0.02035       -0.14190       -0.04524 )
           atom   42  C     Mean Z*:       -0.06004
      E*x (       -0.09873        0.10865       -0.07464 )
      E*y (       -0.06166       -0.03614        0.00862 )
      E*z (        0.02035       -0.14190       -0.04524 )
           atom   43  C     Mean Z*:       -0.05671
      E*x (       -0.06424       -0.04322       -0.05232 )
      E*y (        0.12593       -0.05560        0.06045 )
      E*z (        0.12933        0.05991       -0.05030 )
           atom   44  C     Mean Z*:       -0.05671
      E*x (       -0.06424       -0.04322       -0.05232 )
      E*y (        0.12593       -0.05560        0.06045 )
      E*z (        0.12933        0.05991       -0.05030 )
           atom   45  C     Mean Z*:       -0.05671
      E*x (       -0.02195       -0.10151       -0.02619 )
      E*y (        0.06764       -0.09790       -0.07554 )
      E*z (       -0.11655        0.08205       -0.05030 )
           atom   46  C     Mean Z*:       -0.05671
      E*x (       -0.02195       -0.10151       -0.02619 )
      E*y (        0.06764       -0.09790       -0.07554 )
      E*z (       -0.11655        0.08205       -0.05030 )
           atom   47  C     Mean Z*:       -0.05671
      E*x (       -0.09358       -0.10899        0.07852 )
      E*y (        0.06016       -0.02627        0.01509 )
      E*z (       -0.01278       -0.14196       -0.05030 )
           atom   48  C     Mean Z*:       -0.05671
      E*x (       -0.09358       -0.10899        0.07852 )
      E*y (        0.06016       -0.02627        0.01509 )
      E*z (       -0.01278       -0.14196       -0.05030 )
           atom   49  H     Mean Z*:        0.09990
      E*x (        0.14582       -0.03042        0.03870 )
      E*y (       -0.05111        0.09172        0.09410 )
      E*z (        0.04517        0.07279        0.06216 )
           atom   50  H     Mean Z*:        0.09990
      E*x (        0.14582       -0.03042        0.03870 )
      E*y (       -0.05111        0.09172        0.09410 )
      E*z (        0.04517        0.07279        0.06216 )
           atom   51  H     Mean Z*:        0.09990
      E*x (        0.06994        0.00730       -0.10085 )
      E*y (       -0.01339        0.16760       -0.01353 )
      E*z (       -0.08562        0.00272        0.06216 )
           atom   52  H     Mean Z*:        0.09990
      E*x (        0.06994        0.00730       -0.10085 )
      E*y (       -0.01339        0.16760       -0.01353 )
      E*z (       -0.08562        0.00272        0.06216 )
           atom   53  H     Mean Z*:        0.09990
      E*x (        0.14055        0.05416        0.06215 )
      E*y (        0.03347        0.09699       -0.08057 )
      E*z (        0.04045       -0.07551        0.06216 )
           atom   54  H     Mean Z*:        0.09990
      E*x (        0.14055        0.05416        0.06215 )
      E*y (        0.03347        0.09699       -0.08057 )
      E*z (        0.04045       -0.07551        0.06216 )
           atom   55  H     Mean Z*:        0.09919
      E*x (        0.06454       -0.00423        0.09856 )
      E*y (        0.01723        0.16939       -0.00968 )
      E*z (        0.08722        0.00579        0.06364 )
           atom   56  H     Mean Z*:        0.09919
      E*x (        0.06454       -0.00423        0.09856 )
      E*y (        0.01723        0.16939       -0.00968 )
      E*z (        0.08722        0.00579        0.06364 )
           atom   57  H     Mean Z*:        0.09919
      E*x (        0.14881        0.03143       -0.04090 )
      E*y (        0.05288        0.08512        0.09020 )
      E*z (       -0.04862        0.07264        0.06364 )
           atom   58  H     Mean Z*:        0.09919
      E*x (        0.14881        0.03143       -0.04090 )
      E*y (        0.05288        0.08512        0.09020 )
      E*z (       -0.04862        0.07264        0.06364 )
           atom   59  H     Mean Z*:        0.09919
      E*x (        0.13755       -0.05938       -0.05766 )
      E*y (       -0.03793        0.09638       -0.08052 )
      E*z (       -0.03860       -0.07843        0.06364 )
           atom   60  H     Mean Z*:        0.09919
      E*x (        0.13755       -0.05938       -0.05766 )
      E*y (       -0.03793        0.09638       -0.08052 )
      E*z (       -0.03860       -0.07843        0.06364 )
           atom   61  H     Mean Z*:        0.09704
      E*x (        0.14424        0.05413       -0.01859 )
      E*y (        0.06536        0.01952        0.04831 )
      E*z (       -0.03762        0.06568        0.12735 )
           atom   62  H     Mean Z*:        0.09704
      E*x (        0.14424        0.05413       -0.01859 )
      E*y (        0.06536        0.01952        0.04831 )
      E*z (       -0.03762        0.06568        0.12735 )
           atom   63  H     Mean Z*:        0.09704
      E*x (        0.10244       -0.08949       -0.03254 )
      E*y (       -0.07826        0.06132       -0.04025 )
      E*z (       -0.03808       -0.06542        0.12735 )
           atom   64  H     Mean Z*:        0.09704
      E*x (        0.10244       -0.08949       -0.03254 )
      E*y (       -0.07826        0.06132       -0.04025 )
      E*z (       -0.03808       -0.06542        0.12735 )
           atom   65  H     Mean Z*:        0.09704
      E*x (       -0.00104        0.01851        0.05113 )
      E*y (        0.02975        0.16480       -0.00806 )
      E*z (        0.07569       -0.00026        0.12735 )
           atom   66  H     Mean Z*:        0.09704
      E*x (       -0.00104        0.01851        0.05113 )
      E*y (        0.02975        0.16480       -0.00806 )
      E*z (        0.07569       -0.00026        0.12735 )
           atom   67  H     Mean Z*:        0.09757
      E*x (        0.05117        0.09160        0.02126 )
      E*y (        0.07406        0.08710       -0.02343 )
      E*z (        0.04285       -0.03368        0.15444 )
           atom   68  H     Mean Z*:        0.09757
      E*x (        0.05117        0.09160        0.02126 )
      E*y (        0.07406        0.08710       -0.02343 )
      E*z (        0.04285       -0.03368        0.15444 )
           atom   69  H     Mean Z*:        0.09757
      E*x (        0.14985       -0.01709        0.00966 )
      E*y (       -0.03463       -0.01158        0.03013 )
      E*z (        0.00774        0.05395        0.15444 )
           atom   70  H     Mean Z*:        0.09757
      E*x (        0.14985       -0.01709        0.00966 )
      E*y (       -0.03463       -0.01158        0.03013 )
      E*z (        0.00774        0.05395        0.15444 )
           atom   71  H     Mean Z*:        0.09757
      E*x (        0.00638       -0.04820       -0.03092 )
      E*y (       -0.06574        0.13188       -0.00670 )
      E*z (       -0.05059       -0.02027        0.15444 )
           atom   72  H     Mean Z*:        0.09757
      E*x (        0.00638       -0.04820       -0.03092 )
      E*y (       -0.06574        0.13188       -0.00670 )
      E*z (       -0.05059       -0.02027        0.15444 )
           atom   73  O     Mean Z*:       -1.56966
      E*x (       -1.77382       -0.41541       -1.20588 )
      E*y (       -0.35298       -0.97900       -0.11998 )
      E*z (       -1.33071       -0.26652       -1.95616 )
           atom   74  O     Mean Z*:       -1.56966
      E*x (       -1.77382       -0.41541       -1.20588 )
      E*y (       -0.35298       -0.97900       -0.11998 )
      E*z (       -1.33071       -0.26652       -1.95616 )
           atom   75  O     Mean Z*:       -1.56966
      E*x (       -1.51043        0.50505        0.70684 )
      E*y (        0.56748       -1.24239       -0.98434 )
      E*z (        0.89617       -1.01917       -1.95616 )
           atom   76  O     Mean Z*:       -1.56966
      E*x (       -1.51043        0.50505        0.70684 )
      E*y (        0.56748       -1.24239       -0.98434 )
      E*z (        0.89617       -1.01917       -1.95616 )
           atom   77  O     Mean Z*:       -1.56966
      E*x (       -0.84498       -0.18328        0.49904 )
      E*y (       -0.12085       -1.90783        1.10431 )
      E*z (        0.43454        1.28569       -1.95616 )
           atom   78  O     Mean Z*:       -1.56966
      E*x (       -0.84498       -0.18328        0.49904 )
      E*y (       -0.12085       -1.90783        1.10431 )
      E*z (        0.43454        1.28569       -1.95616 )
           atom   79  O     Mean Z*:       -1.61907
      E*x (       -1.51042       -0.69639       -0.63723 )
      E*y (       -0.76872       -1.38081       -1.02717 )
      E*z (       -0.88391       -1.07540       -1.96597 )
           atom   80  O     Mean Z*:       -1.61907
      E*x (       -1.51042       -0.69639       -0.63723 )
      E*y (       -0.76872       -1.38081       -1.02717 )
      E*z (       -0.88391       -1.07540       -1.96597 )
           atom   81  O     Mean Z*:       -1.61907
      E*x (       -2.04763        0.45856        1.20817 )
      E*y (        0.38624       -0.84360       -0.03827 )
      E*z (        1.37328       -0.22779       -1.96597 )
           atom   82  O     Mean Z*:       -1.61907
      E*x (       -2.04763        0.45856        1.20817 )
      E*y (        0.38624       -0.84360       -0.03827 )
      E*z (        1.37328       -0.22779       -1.96597 )
           atom   83  O     Mean Z*:       -1.61907
      E*x (       -0.77880        0.34632       -0.57094 )
      E*y (        0.27399       -2.11243        1.06544 )
      E*z (       -0.48937        1.30319       -1.96597 )
           atom   84  O     Mean Z*:       -1.61907
      E*x (       -0.77880        0.34632       -0.57094 )
      E*y (        0.27399       -2.11243        1.06544 )
      E*z (       -0.48937        1.30319       -1.96597 )
           atom   85  O     Mean Z*:       -1.65868
      E*x (       -2.05765       -1.17657       -0.88100 )
      E*y (       -1.24910       -1.90624       -0.50902 )
      E*z (       -0.75369       -0.37972       -1.01215 )
           atom   86  O     Mean Z*:       -1.65868
      E*x (       -2.05765       -1.17657       -0.88100 )
      E*y (       -1.24910       -1.90624       -0.50902 )
      E*z (       -0.75369       -0.37972       -1.01215 )
           atom   87  O     Mean Z*:       -1.65868
      E*x (       -2.99444        0.70824        0.88133 )
      E*y (        0.63572       -0.96945       -0.50846 )
      E*z (        0.70569       -0.46286       -1.01215 )
           atom   88  O     Mean Z*:       -1.65868
      E*x (       -2.99444        0.70824        0.88133 )
      E*y (        0.63572       -0.96945       -0.50846 )
      E*z (        0.70569       -0.46286       -1.01215 )
           atom   89  O     Mean Z*:       -1.65868
      E*x (       -0.89375        0.57712       -0.00032 )
      E*y (        0.50459       -3.07015        1.01748 )
      E*z (        0.04800        0.84257       -1.01215 )
           atom   90  O     Mean Z*:       -1.65868
      E*x (       -0.89375        0.57712       -0.00032 )
      E*y (        0.50459       -3.07015        1.01748 )
      E*z (        0.04800        0.84257       -1.01215 )
           atom   91  O     Mean Z*:       -1.61759
      E*x (       -2.86795       -0.67011       -0.84324 )
      E*y (       -0.62069       -0.97588       -0.51249 )
      E*z (       -0.67334       -0.45872       -1.00894 )
           atom   92  O     Mean Z*:       -1.61759
[...]
     freq ( 115- 115) =        459.4  [cm-1]   --> E_u*            I  
     freq ( 116- 116) =        465.0  [cm-1]   --> E_u             I  
     freq ( 117- 117) =        465.0  [cm-1]   --> E_u*            I  
     freq ( 118- 118) =        465.2  [cm-1]   --> A_u             I  
     freq ( 119- 119) =        467.5  [cm-1]   --> A_u             I  
     freq ( 120- 120) =        491.7  [cm-1]   --> A_g             R  
     freq ( 121- 121) =        517.5  [cm-1]   --> A_u             I  
     freq ( 122- 122) =        522.5  [cm-1]   --> E_u             I  
     freq ( 123- 123) =        522.5  [cm-1]   --> E_u*            I  
     freq ( 124- 124) =        523.1  [cm-1]   --> A_u             I  
     freq ( 125- 125) =        535.0  [cm-1]   --> E_u             I  
     freq ( 126- 126) =        535.0  [cm-1]   --> E_u*            I  
     freq ( 127- 127) =        545.0  [cm-1]   --> E_g             R  
     freq ( 128- 128) =        545.0  [cm-1]   --> E_g*            R  
     freq ( 129- 129) =        548.1  [cm-1]   --> E_u             I  
     freq ( 130- 130) =        548.1  [cm-1]   --> E_u*            I  
     freq ( 131- 131) =        552.3  [cm-1]   --> E_g             R  
     freq ( 132- 132) =        552.3  [cm-1]   --> E_g*            R  
     freq ( 133- 133) =        553.7  [cm-1]   --> A_u             I  
     freq ( 134- 134) =        556.8  [cm-1]   --> A_g             R  
     freq ( 135- 135) =        559.0  [cm-1]   --> A_g             R  
     freq ( 136- 136) =        568.3  [cm-1]   --> A_g             R  
     freq ( 137- 137) =        578.4  [cm-1]   --> E_u             I  
     freq ( 138- 138) =        578.4  [cm-1]   --> E_u*            I  
     freq ( 139- 139) =        595.4  [cm-1]   --> E_g             R  
     freq ( 140- 140) =        595.4  [cm-1]   --> E_g*            R  
     freq ( 141- 141) =        595.5  [cm-1]   --> A_u             I  
     freq ( 142- 142) =        603.8  [cm-1]   --> A_g             R  
     freq ( 143- 143) =        612.3  [cm-1]   --> A_u             I  
     freq ( 144- 144) =        616.6  [cm-1]   --> A_g             R  
     freq ( 145- 145) =        623.1  [cm-1]   --> E_g             R  
     freq ( 146- 146) =        623.1  [cm-1]   --> E_g*            R  
     freq ( 147- 147) =        660.3  [cm-1]   --> E_u             I  
     freq ( 148- 148) =        660.3  [cm-1]   --> E_u*            I  
     freq ( 149- 149) =        665.5  [cm-1]   --> E_g             R  
     freq ( 150- 150) =        665.5  [cm-1]   --> E_g*            R  
     freq ( 151- 151) =        671.3  [cm-1]   --> E_g             R  
     freq ( 152- 152) =        671.3  [cm-1]   --> E_g*            R  
     freq ( 153- 153) =        674.2  [cm-1]   --> A_g             R  
     freq ( 154- 154) =        676.6  [cm-1]   --> A_g             R  
     freq ( 155- 155) =        679.5  [cm-1]   --> E_g             R  
     freq ( 156- 156) =        679.5  [cm-1]   --> E_g*            R  
     freq ( 157- 157) =        684.3  [cm-1]   --> E_g             R  
     freq ( 158- 158) =        684.3  [cm-1]   --> E_g*            R  
     freq ( 159- 159) =        685.4  [cm-1]   --> A_g             R  
     freq ( 160- 160) =        693.9  [cm-1]   --> A_g             R  
     freq ( 161- 161) =        699.2  [cm-1]   --> E_g             R  
     freq ( 162- 162) =        699.2  [cm-1]   --> E_g*            R  
     freq ( 163- 163) =        717.1  [cm-1]   --> E_u             I  
     freq ( 164- 164) =        717.1  [cm-1]   --> E_u*            I  
     freq ( 165- 165) =        722.2  [cm-1]   --> A_u             I  
     freq ( 166- 166) =        722.8  [cm-1]   --> E_u             I  
     freq ( 167- 167) =        722.8  [cm-1]   --> E_u*            I  
     freq ( 168- 168) =        729.4  [cm-1]   --> A_u             I  
     freq ( 169- 169) =        769.0  [cm-1]   --> E_u             I  
     freq ( 170- 170) =        769.0  [cm-1]   --> E_u*            I  
     freq ( 171- 171) =        780.8  [cm-1]   --> E_u             I  
     freq ( 172- 172) =        780.8  [cm-1]   --> E_u*            I  
     freq ( 173- 173) =        792.3  [cm-1]   --> E_g             R  
     freq ( 174- 174) =        792.3  [cm-1]   --> E_g*            R  
     freq ( 175- 175) =        792.7  [cm-1]   --> A_g             R  
     freq ( 176- 176) =        793.6  [cm-1]   --> A_u             I  
     freq ( 177- 177) =        794.7  [cm-1]   --> E_g             R  
     freq ( 178- 178) =        794.7  [cm-1]   --> E_g*            R  
     freq ( 179- 179) =        795.9  [cm-1]   --> A_g             R  
     freq ( 180- 180) =        812.0  [cm-1]   --> A_u             I  
     freq ( 181- 181) =        827.1  [cm-1]   --> E_g             R  
     freq ( 182- 182) =        827.1  [cm-1]   --> E_g*            R  
     freq ( 183- 183) =        830.3  [cm-1]   --> E_g             R  
     freq ( 184- 184) =        830.3  [cm-1]   --> E_g*            R  
     freq ( 185- 185) =        837.1  [cm-1]   --> A_g             R  
     freq ( 186- 186) =        837.8  [cm-1]   --> E_g             R  
     freq ( 187- 187) =        837.8  [cm-1]   --> E_g*            R  
     freq ( 188- 188) =        840.0  [cm-1]   --> A_g             R  
     freq ( 189- 189) =        847.0  [cm-1]   --> A_g             R  
     freq ( 190- 190) =        860.0  [cm-1]   --> A_g             R  
     freq ( 191- 191) =        862.6  [cm-1]   --> E_g             R  
     freq ( 192- 192) =        862.6  [cm-1]   --> E_g*            R  
     freq ( 193- 193) =        864.2  [cm-1]   --> E_u             I  
     freq ( 194- 194) =        864.2  [cm-1]   --> E_u*            I  
     freq ( 195- 195) =        864.4  [cm-1]   --> E_u             I  
     freq ( 196- 196) =        864.4  [cm-1]   --> E_u*            I  
     freq ( 197- 197) =        874.1  [cm-1]   --> A_u             I  
     freq ( 198- 198) =        882.0  [cm-1]   --> A_u             I  
     freq ( 199- 199) =        972.8  [cm-1]   --> A_g             R  
     freq ( 200- 200) =        973.7  [cm-1]   --> E_g             R  
     freq ( 201- 201) =        973.7  [cm-1]   --> E_g*            R  
     freq ( 202- 202) =        975.2  [cm-1]   --> A_g             R  
     freq ( 203- 203) =        975.9  [cm-1]   --> E_u             I  
     freq ( 204- 204) =        975.9  [cm-1]   --> E_u*            I  
     freq ( 205- 205) =        976.4  [cm-1]   --> E_g             R  
     freq ( 206- 206) =        976.4  [cm-1]   --> E_g*            R  
     freq ( 207- 207) =        976.4  [cm-1]   --> A_u             I  
     freq ( 208- 208) =        978.4  [cm-1]   --> E_u             I  
     freq ( 209- 209) =        978.4  [cm-1]   --> E_u*            I  
     freq ( 210- 210) =        978.6  [cm-1]   --> A_u             I  
     freq ( 211- 211) =        995.2  [cm-1]   --> A_u             I  
     freq ( 212- 212) =       1011.5  [cm-1]   --> A_u             I  
     freq ( 213- 213) =       1019.0  [cm-1]   --> E_u             I  
     freq ( 214- 214) =       1019.0  [cm-1]   --> E_u*            I  
     freq ( 215- 215) =       1033.6  [cm-1]   --> E_u             I  
     freq ( 216- 216) =       1033.6  [cm-1]   --> E_u*            I  
     freq ( 217- 217) =       1089.4  [cm-1]   --> A_u             I  
     freq ( 218- 218) =       1090.3  [cm-1]   --> E_u             I  
     freq ( 219- 219) =       1090.3  [cm-1]   --> E_u*            I  
     freq ( 220- 220) =       1093.1  [cm-1]   --> A_u             I  
     freq ( 221- 221) =       1100.2  [cm-1]   --> E_u             I  
     freq ( 222- 222) =       1100.2  [cm-1]   --> E_u*            I  
     freq ( 223- 223) =       1116.2  [cm-1]   --> E_u             I  
     freq ( 224- 224) =       1116.2  [cm-1]   --> E_u*            I  
     freq ( 225- 225) =       1118.3  [cm-1]   --> E_u             I  
     freq ( 226- 226) =       1118.3  [cm-1]   --> E_u*            I  
     freq ( 227- 227) =       1123.0  [cm-1]   --> E_g             R  
     freq ( 228- 228) =       1123.0  [cm-1]   --> E_g*            R  
     freq ( 229- 229) =       1123.9  [cm-1]   --> A_g             R  
     freq ( 230- 230) =       1129.2  [cm-1]   --> A_g             R  
     freq ( 231- 231) =       1130.5  [cm-1]   --> E_g             R  
     freq ( 232- 232) =       1130.5  [cm-1]   --> E_g*            R  
     freq ( 233- 233) =       1132.0  [cm-1]   --> A_u             I  
     freq ( 234- 234) =       1140.7  [cm-1]   --> A_u             I  
     freq ( 235- 235) =       1175.8  [cm-1]   --> E_g             R  
     freq ( 236- 236) =       1175.8  [cm-1]   --> E_g*            R  
     freq ( 237- 237) =       1176.3  [cm-1]   --> A_g             R  
     freq ( 238- 238) =       1177.2  [cm-1]   --> E_g             R  
     freq ( 239- 239) =       1177.2  [cm-1]   --> E_g*            R  
     freq ( 240- 240) =       1190.3  [cm-1]   --> A_g             R  
     freq ( 241- 241) =       1269.2  [cm-1]   --> A_g             R  
     freq ( 242- 242) =       1272.8  [cm-1]   --> E_g             R  
     freq ( 243- 243) =       1272.8  [cm-1]   --> E_g*            R  
     freq ( 244- 244) =       1274.2  [cm-1]   --> A_g             R  
     freq ( 245- 245) =       1283.4  [cm-1]   --> E_g             R  
     freq ( 246- 246) =       1283.4  [cm-1]   --> E_g*            R  
     freq ( 247- 247) =       1335.4  [cm-1]   --> E_u             I  
     freq ( 248- 248) =       1335.4  [cm-1]   --> E_u*            I  
     freq ( 249- 249) =       1341.9  [cm-1]   --> A_u             I  
     freq ( 250- 250) =       1345.6  [cm-1]   --> A_u             I  
     freq ( 251- 251) =       1352.9  [cm-1]   --> E_u             I  
     freq ( 252- 252) =       1352.9  [cm-1]   --> E_u*            I  
     freq ( 253- 253) =       1354.1  [cm-1]   --> E_u             I  
     freq ( 254- 254) =       1354.1  [cm-1]   --> E_u*            I  
     freq ( 255- 255) =       1354.3  [cm-1]   --> A_u             I  
     freq ( 256- 256) =       1356.3  [cm-1]   --> A_u             I  
     freq ( 257- 257) =       1375.6  [cm-1]   --> E_u             I  
     freq ( 258- 258) =       1375.6  [cm-1]   --> E_u*            I  
     freq ( 259- 259) =       1380.3  [cm-1]   --> E_u             I  
     freq ( 260- 260) =       1380.3  [cm-1]   --> E_u*            I  
     freq ( 261- 261) =       1383.6  [cm-1]   --> E_g             R  
     freq ( 262- 262) =       1383.6  [cm-1]   --> E_g*            R  
     freq ( 263- 263) =       1384.2  [cm-1]   --> E_u             I  
     freq ( 264- 264) =       1384.2  [cm-1]   --> E_u*            I  
     freq ( 265- 265) =       1386.4  [cm-1]   --> A_u             I  
     freq ( 266- 266) =       1388.6  [cm-1]   --> A_g             R  
     freq ( 267- 267) =       1391.5  [cm-1]   --> A_u             I  
     freq ( 268- 268) =       1401.9  [cm-1]   --> E_g             R  
     freq ( 269- 269) =       1401.9  [cm-1]   --> E_g*            R  
     freq ( 270- 270) =       1412.6  [cm-1]   --> A_g             R  
     freq ( 271- 271) =       1465.9  [cm-1]   --> A_g             R  
     freq ( 272- 272) =       1474.1  [cm-1]   --> E_u             I  
     freq ( 273- 273) =       1474.1  [cm-1]   --> E_u*            I  
     freq ( 274- 274) =       1476.1  [cm-1]   --> E_u             I  
     freq ( 275- 275) =       1476.1  [cm-1]   --> E_u*            I  
     freq ( 276- 276) =       1476.6  [cm-1]   --> A_u             I  
     freq ( 277- 277) =       1479.7  [cm-1]   --> A_u             I  
     freq ( 278- 278) =       1483.6  [cm-1]   --> A_u             I  
     freq ( 279- 279) =       1490.2  [cm-1]   --> A_g             R  
     freq ( 280- 280) =       1497.8  [cm-1]   --> E_g             R  
     freq ( 281- 281) =       1497.8  [cm-1]   --> E_g*            R  
     freq ( 282- 282) =       1500.5  [cm-1]   --> E_u             I  
     freq ( 283- 283) =       1500.5  [cm-1]   --> E_u*            I  
     freq ( 284- 284) =       1531.5  [cm-1]   --> E_g             R  
     freq ( 285- 285) =       1531.5  [cm-1]   --> E_g*            R  
     freq ( 286- 286) =       1548.1  [cm-1]   --> E_u             I  
     freq ( 287- 287) =       1548.1  [cm-1]   --> E_u*            I  
     freq ( 288- 288) =       1562.0  [cm-1]   --> A_u             I  
     freq ( 289- 289) =       1572.2  [cm-1]   --> A_g             R  
     freq ( 290- 290) =       1574.1  [cm-1]   --> A_g             R  
     freq ( 291- 291) =       1577.5  [cm-1]   --> E_g             R  
     freq ( 292- 292) =       1577.5  [cm-1]   --> E_g*            R  
     freq ( 293- 293) =       1590.8  [cm-1]   --> E_g             R  
     freq ( 294- 294) =       1590.8  [cm-1]   --> E_g*            R  
     freq ( 295- 295) =       1599.7  [cm-1]   --> A_g             R  
     freq ( 296- 296) =       1600.9  [cm-1]   --> A_g             R  
     freq ( 297- 297) =       1603.7  [cm-1]   --> E_g             R  
     freq ( 298- 298) =       1603.7  [cm-1]   --> E_g*            R  
     freq ( 299- 299) =       1608.5  [cm-1]   --> E_g             R  
     freq ( 300- 300) =       1608.5  [cm-1]   --> E_g*            R  
     freq ( 301- 301) =       3100.5  [cm-1]   --> E_u             I  
     freq ( 302- 302) =       3100.5  [cm-1]   --> E_u*            I  
     freq ( 303- 303) =       3103.5  [cm-1]   --> E_u             I  
     freq ( 304- 304) =       3103.5  [cm-1]   --> E_u*            I  
     freq ( 305- 305) =       3132.5  [cm-1]   --> A_g             R  
     freq ( 306- 306) =       3133.4  [cm-1]   --> A_u             I  
     freq ( 307- 307) =       3134.9  [cm-1]   --> A_g             R  
     freq ( 308- 308) =       3135.7  [cm-1]   --> A_u             I  
     freq ( 309- 309) =       3139.6  [cm-1]   --> A_u             I  
     freq ( 310- 310) =       3140.8  [cm-1]   --> A_g             R  
     freq ( 311- 311) =       3142.4  [cm-1]   --> E_g             R  
     freq ( 312- 312) =       3142.4  [cm-1]   --> E_g*            R  
     freq ( 313- 313) =       3142.8  [cm-1]   --> A_g             R  
     freq ( 314- 314) =       3144.1  [cm-1]   --> E_u             I  
     freq ( 315- 315) =       3144.1  [cm-1]   --> E_u*            I  
     freq ( 316- 316) =       3144.8  [cm-1]   --> E_g             R  
     freq ( 317- 317) =       3144.8  [cm-1]   --> E_g*            R  
     freq ( 318- 318) =       3148.7  [cm-1]   --> E_g             R  
     freq ( 319- 319) =       3148.7  [cm-1]   --> E_g*            R  
     freq ( 320- 320) =       3149.4  [cm-1]   --> A_u             I  
     freq ( 321- 321) =       3151.5  [cm-1]   --> E_g             R  
     freq ( 322- 322) =       3151.5  [cm-1]   --> E_g*            R  
     freq ( 323- 323) =       3152.0  [cm-1]   --> E_u             I  
     freq ( 324- 324) =       3152.0  [cm-1]   --> E_u*            I  

     PHONON       :  11d 4h10m CPU  11d 9h 3m WALL

     INITIALIZATION: 
     phq_setup    :      0.43s CPU      0.93s WALL (       1 calls)
     phq_init     :   2450.14s CPU   2481.62s WALL (       1 calls)

     phq_init     :   2450.14s CPU   2481.62s WALL (       1 calls)
     set_drhoc    :      0.02s CPU      0.02s WALL (       3 calls)
     init_vloc    :      0.02s CPU      0.03s WALL (       1 calls)
     init_us_1    :      0.14s CPU      0.22s WALL (       1 calls)
     init_us_2    :     67.52s CPU     68.25s WALL (    2367 calls)
     newd         :      0.78s CPU      1.46s WALL (       1 calls)
     dvanqq       :   1137.13s CPU   1142.06s WALL (       1 calls)
     drho         :   1261.92s CPU   1286.92s WALL (       1 calls)
     drhous       :   1013.60s CPU   1026.98s WALL (       1 calls)
     nldyntot     :      4.56s CPU      4.63s WALL (       1 calls)
     cmpt_qdipol  :      0.00s CPU      0.00s WALL (       1 calls)

     DIELECTRIC CONSTANT AND EFFECTIVE CHARGES:
     solve_e      :  14370.07s CPU  14562.00s WALL (       1 calls)
     dielec       :      0.33s CPU      0.34s WALL (       1 calls)
     zstar_eu     :  26162.07s CPU  26311.65s WALL (       1 calls)

     DYNAMICAL MATRIX:
     dynmat0      :     43.17s CPU     44.59s WALL (       1 calls)
     dynmat_us    :     14.04s CPU     15.39s WALL (       1 calls)
     addusdynmat  :      0.10s CPU      1.11s WALL (       1 calls)
     d2ionq       :     28.57s CPU     28.59s WALL (       1 calls)
     dynmatcc     :      0.46s CPU      0.49s WALL (       1 calls)
     phqscf       : 922419.42s CPU 939616.10s WALL (       1 calls)
     dynmatrix    :      1.82s CPU      1.91s WALL (       1 calls)

     phqscf       : 922419.42s CPU 939616.10s WALL (       1 calls)
     solve_linter : 896101.82s CPU 912478.31s WALL (     213 calls)
     sth_kernel   : 881098.29s CPU 886211.47s WALL (    1506 calls)
     h_prec       :     94.29s CPU     95.15s WALL (    1509 calls)
     apply_dpot_b :   1292.50s CPU   1330.60s WALL (    1952 calls)
     ortho        :  10938.31s CPU  11000.88s WALL (    2282 calls)
     cgsolve      : 863017.73s CPU 867619.38s WALL (    2282 calls)
     incdrhoscf   :   6722.58s CPU   6797.03s WALL (    2282 calls)
                                        0.00s GPU  (    2282 calls)
     addusddens   :   1510.44s CPU   1549.57s WALL (    1710 calls)
     dv_of_drho   :    291.72s CPU    473.24s WALL (    2282 calls)
     mix_pot      :     82.00s CPU    186.08s WALL (    1506 calls)
     drhodv       :   2905.71s CPU   2995.58s WALL (     213 calls)
     add_zstar_ue :     17.52s CPU     29.89s WALL (     213 calls)
     add_zstar_us :  23351.17s CPU  23725.63s WALL (     213 calls)
     psymdvscf    :  18527.75s CPU  26489.68s WALL (    1497 calls)
     newdq        :   1590.30s CPU   1606.64s WALL (    1506 calls)
     adddvscf     :   1333.45s CPU   1336.75s WALL (    1952 calls)
     drhodvus     :    141.52s CPU    224.68s WALL (     213 calls)

     dvqpsi_us    :   5403.90s CPU   5446.59s WALL (     648 calls)
                                        0.00s GPU  (     648 calls)
     dvqpsi_us_on :   4849.12s CPU   4879.62s WALL (     648 calls)

     add_vuspsi   : 143448.30s CPU 143561.15s WALL (  128133 calls)
     addusdbec    :   5086.95s CPU   5117.27s WALL (    2606 calls)

     drhodvus     :    141.52s CPU    224.68s WALL (     213 calls)

      General routines
     calbec       : 337753.95s CPU 340300.82s WALL (  278018 calls)
     fft          :   1205.23s CPU   1569.87s WALL (  153790 calls)
     ffts         :    363.37s CPU    372.31s WALL (   74870 calls)
     fftw         :  54589.49s CPU  56009.62s WALL (37361320 calls)
     davcio       :     11.96s CPU    417.96s WALL (   97123 calls)
     write_rec    :    258.06s CPU   3026.43s WALL (    1719 calls)

      Additional routines
     ch_psi       : 855889.55s CPU 860413.44s WALL (  128133 calls)
     last         : 367085.27s CPU 368935.56s WALL (  128133 calls)
     Hesh         :    254.58s CPU    263.97s WALL (  128133 calls)
     ch_psi_all_k : 366827.00s CPU 368669.14s WALL (  128133 calls)
                                        0.00s GPU  (  128133 calls)
     ch_psi_calbe : 147675.74s CPU 148746.48s WALL (  128133 calls)
                                        0.00s GPU  (  128133 calls)
     h_psi_bgrp   : 343869.63s CPU 346391.95s WALL (  128133 calls)
     h_psi        : 343868.84s CPU 346391.46s WALL (  128133 calls)
     h_psi:pot    : 343298.52s CPU 345820.08s WALL (  128133 calls)
     h_psi:calbec : 147366.44s CPU 148427.02s WALL (  128133 calls)
     s_psi_bgrp   : 292510.65s CPU 292743.36s WALL (  258551 calls)
     s_psi        : 291748.34s CPU 291972.38s WALL (  258551 calls)


     PHONON       :  11d 4h10m CPU  11d 9h 3m WALL


   This run was terminated on:  17:14:51   3Aug2025            

=------------------------------------------------------------------------------=
   JOB DONE.
=------------------------------------------------------------------------------=
