
     Program Q2R v.7.3.1 starts on 18Aug2025 at 16: 3:55 

     This program is part of the open-source Quantum ESPRESSO suite
     for quantum simulation of materials; please cite
         "P. Giannozzi et al., J. Phys.:Condens. Matter 21 395502 (2009);
         "P. Giannozzi et al., J. Phys.:Condens. Matter 29 465901 (2017);
         "P. Giannozzi et al., J. Chem. Phys. 152 154105 (2020);
          URL http://www.quantum-espresso.org", 
     in publications or presentations arising from this work. More details at
     http://www.quantum-espresso.org/quote

     Parallel version (MPI), running on    64 processors

     MPI processes distributed on     1 nodes
     R & G space division:  proc/nbgrp/npool/nimage =      64
     78563 MiB available memory on the printing compute node when the environment starts


  reading grid info from file dyn0    

  reading force constants from file dyn1
 macroscopic fields = T
   2.19290   0.00000  -0.00000
  -0.00000   2.19290   0.00000
  -0.00000   0.00000   2.09577
  na=            1
   1.74364   1.21058   0.90406
   1.19597   3.17164  -0.42437
   0.83616  -0.43841   1.36562
  na=            2
   1.74364   1.21058   0.90406
   1.19597   3.17164  -0.42437
   0.83616  -0.43841   1.36562
  na=            3
   3.85671   0.02401  -0.08452
   0.00940   1.05857   0.99513
  -0.03841   0.94334   1.36562
  na=            4
   3.85671   0.02401  -0.08452
   0.00940   1.05857   0.99513
  -0.03841   0.94334   1.36562
  na=            5
   1.77257  -1.21268  -0.81955
  -1.22729   3.14271  -0.57076
  -0.79775  -0.50493   1.36562
  na=            6
   1.77257  -1.21268  -0.81955
  -1.22729   3.14271  -0.57076
  -0.79775  -0.50493   1.36562
  na=            7
   1.63936   0.23202   1.44605
   0.14180   2.18896  -0.67925
   1.55408  -0.82960   2.24481
  na=            8
   1.63936   0.23202   1.44605
   0.14180   2.18896  -0.67925
   1.55408  -0.82960   2.24481
  na=            9
   2.21343   0.18963  -0.13478
   0.09942   1.61489   1.59194
  -0.05859   1.76068   2.24481
  na=           10
   2.21343   0.18963  -0.13478
   0.09942   1.61489   1.59194
  -0.05859   1.76068   2.24481
  na=           11
   1.88969  -0.28633  -1.31127
  -0.37655   1.93863  -0.91269
  -1.49550  -0.93108   2.24481
  na=           12
   1.88969  -0.28633  -1.31127
  -0.37655   1.93863  -0.91269
  -1.49550  -0.93108   2.24481
  na=           13
  -0.32283   0.14791  -0.44094
   0.14835  -0.12301   0.24814
  -0.45879   0.25987  -0.62553
  na=           14
  -0.32283   0.14791  -0.44094
   0.14835  -0.12301   0.24814
  -0.45879   0.25987  -0.62553
  na=           15
  -0.04468   0.01224   0.00557
   0.01268  -0.40116  -0.50593
   0.00434  -0.52726  -0.62553
  na=           16
  -0.04468   0.01224   0.00557
   0.01268  -0.40116  -0.50593
   0.00434  -0.52726  -0.62553
  na=           17
  -0.30125  -0.16081   0.43536
  -0.16037  -0.14459   0.25779
   0.45445   0.26739  -0.62553
  na=           18
  -0.30125  -0.16081   0.43536
  -0.16037  -0.14459   0.25779
   0.45445   0.26739  -0.62553
  na=           19
  -0.28179  -0.48031  -0.02831
  -0.47488  -0.85899  -0.01122
   0.00061  -0.00807  -0.01337
  na=           20
  -0.28179  -0.48031  -0.02831
  -0.47488  -0.85899  -0.01122
   0.00061  -0.00807  -0.01337
  na=           21
  -1.12830  -0.01385   0.02387
  -0.00843  -0.01248  -0.01891
   0.00668   0.00456  -0.01337
  na=           22
  -1.12830  -0.01385   0.02387
  -0.00843  -0.01248  -0.01891
   0.00668   0.00456  -0.01337
  na=           23
  -0.30108   0.48602   0.00444
   0.49144  -0.83969   0.03013
  -0.00729   0.00350  -0.01337
  na=           24
  -0.30108   0.48602   0.00444
   0.49144  -0.83969   0.03013
  -0.00729   0.00350  -0.01337
  na=           25
  -0.07820  -0.01423   0.06648
   0.14244  -0.03676   0.12851
   0.00472  -0.04287  -0.07735
  na=           26
  -0.07820  -0.01423   0.06648
   0.14244  -0.03676   0.12851
   0.00472  -0.04287  -0.07735
  na=           27
   0.00840  -0.09244  -0.14453
   0.06423  -0.12336  -0.00669
   0.03477   0.02552  -0.07735
  na=           28
   0.00840  -0.09244  -0.14453
   0.06423  -0.12336  -0.00669
   0.03477   0.02552  -0.07735
  na=           29
  -0.10264  -0.12834   0.07806
   0.02833  -0.01232  -0.12183
  -0.03948   0.01735  -0.07735
  na=           30
  -0.10264  -0.12834   0.07806
   0.02833  -0.01232  -0.12183
  -0.03948   0.01735  -0.07735
  na=           31
  -0.00695   0.11731   0.12324
  -0.02133  -0.07425   0.03423
  -0.06420   0.00550  -0.12169
  na=           32
  -0.00695   0.11731   0.12324
  -0.02133  -0.07425   0.03423
  -0.06420   0.00550  -0.12169
  na=           33
  -0.01587   0.01619  -0.09127
  -0.12246  -0.06534   0.08962
   0.02733  -0.05835  -0.12169
  na=           34
  -0.01587   0.01619  -0.09127
  -0.12246  -0.06534   0.08962
   0.02733  -0.05835  -0.12169
  na=           35
  -0.09898   0.07447  -0.03197
  -0.06418   0.01778  -0.12385
   0.03687   0.05285  -0.12169
  na=           36
  -0.09898   0.07447  -0.03197
  -0.06418   0.01778  -0.12385
   0.03687   0.05285  -0.12169
  na=           37
  -0.03636   0.10030   0.02985
  -0.06959  -0.10835  -0.06895
   0.11272   0.08857  -0.04453
  na=           38
  -0.03636   0.10030   0.02985
  -0.06959  -0.10835  -0.06895
   0.11272   0.08857  -0.04453
  na=           39
  -0.07705   0.04609   0.04479
  -0.12379  -0.06765   0.06032
  -0.13306   0.05333  -0.04453
  na=           40
  -0.07705   0.04609   0.04479
  -0.12379  -0.06765   0.06032
  -0.13306   0.05333  -0.04453
  na=           41
  -0.10365   0.10844  -0.07464
  -0.06145  -0.04106   0.00862
   0.02035  -0.14190  -0.04453
  na=           42
  -0.10365   0.10844  -0.07464
  -0.06145  -0.04106   0.00862
   0.02035  -0.14190  -0.04453
  na=           43
  -0.06916  -0.04343  -0.05232
   0.12614  -0.06052   0.06045
   0.12933   0.05991  -0.04958
  na=           44
  -0.06916  -0.04343  -0.05232
   0.12614  -0.06052   0.06045
   0.12933   0.05991  -0.04958
  na=           45
  -0.02686  -0.10172  -0.02619
   0.06785  -0.10282  -0.07554
  -0.11655   0.08205  -0.04958
  na=           46
  -0.02686  -0.10172  -0.02619
   0.06785  -0.10282  -0.07554
  -0.11655   0.08205  -0.04958
  na=           47
  -0.09850  -0.10921   0.07852
   0.06037  -0.03118   0.01509
  -0.01278  -0.14196  -0.04958
  na=           48
  -0.09850  -0.10921   0.07852
   0.06037  -0.03118   0.01509
  -0.01278  -0.14196  -0.04958
  na=           49
   0.14091  -0.03063   0.03870
  -0.05090   0.08680   0.09410
   0.04517   0.07279   0.06287
  na=           50
   0.14091  -0.03063   0.03870
  -0.05090   0.08680   0.09410
   0.04517   0.07279   0.06287
  na=           51
   0.06502   0.00709  -0.10085
  -0.01318   0.16269  -0.01353
  -0.08562   0.00272   0.06287
  na=           52
   0.06502   0.00709  -0.10085
  -0.01318   0.16269  -0.01353
  -0.08562   0.00272   0.06287
  na=           53
   0.13563   0.05395   0.06215
   0.03368   0.09208  -0.08057
   0.04045  -0.07551   0.06287
  na=           54
   0.13563   0.05395   0.06215
   0.03368   0.09208  -0.08057
   0.04045  -0.07551   0.06287
  na=           55
   0.05962  -0.00444   0.09856
   0.01744   0.16448  -0.00968
   0.08722   0.00579   0.06436
  na=           56
   0.05962  -0.00444   0.09856
   0.01744   0.16448  -0.00968
   0.08722   0.00579   0.06436
  na=           57
   0.14389   0.03122  -0.04090
   0.05309   0.08021   0.09020
  -0.04862   0.07264   0.06436
  na=           58
   0.14389   0.03122  -0.04090
   0.05309   0.08021   0.09020
  -0.04862   0.07264   0.06436
  na=           59
   0.13263  -0.05959  -0.05766
  -0.03772   0.09146  -0.08052
  -0.03860  -0.07843   0.06436
  na=           60
   0.13263  -0.05959  -0.05766
  -0.03772   0.09146  -0.08052
  -0.03860  -0.07843   0.06436
  na=           61
   0.13932   0.05392  -0.01859
   0.06557   0.01461   0.04831
  -0.03762   0.06568   0.12806
  na=           62
   0.13932   0.05392  -0.01859
   0.06557   0.01461   0.04831
  -0.03762   0.06568   0.12806
  na=           63
   0.09753  -0.08970  -0.03254
  -0.07805   0.05640  -0.04025
  -0.03808  -0.06542   0.12806
  na=           64
   0.09753  -0.08970  -0.03254
  -0.07805   0.05640  -0.04025
  -0.03808  -0.06542   0.12806
  na=           65
  -0.00595   0.01830   0.05113
   0.02996   0.15988  -0.00806
   0.07569  -0.00026   0.12806
  na=           66
  -0.00595   0.01830   0.05113
   0.02996   0.15988  -0.00806
   0.07569  -0.00026   0.12806
  na=           67
   0.04626   0.09139   0.02126
   0.07427   0.08218  -0.02343
   0.04285  -0.03368   0.15515
  na=           68
   0.04626   0.09139   0.02126
   0.07427   0.08218  -0.02343
   0.04285  -0.03368   0.15515
  na=           69
   0.14493  -0.01730   0.00966
  -0.03442  -0.01649   0.03013
   0.00774   0.05395   0.15515
  na=           70
   0.14493  -0.01730   0.00966
  -0.03442  -0.01649   0.03013
   0.00774   0.05395   0.15515
  na=           71
   0.00147  -0.04841  -0.03092
  -0.06553   0.12697  -0.00670
  -0.05059  -0.02027   0.15515
  na=           72
   0.00147  -0.04841  -0.03092
  -0.06553   0.12697  -0.00670
  -0.05059  -0.02027   0.15515
  na=           73
  -1.77873  -0.41562  -1.20588
  -0.35277  -0.98392  -0.11998
  -1.33071  -0.26652  -1.95544
  na=           74
  -1.77873  -0.41562  -1.20588
  -0.35277  -0.98392  -0.11998
  -1.33071  -0.26652  -1.95544
  na=           75
  -1.51534   0.50484   0.70684
   0.56769  -1.24731  -0.98434
   0.89617  -1.01917  -1.95544
  na=           76
  -1.51534   0.50484   0.70684
   0.56769  -1.24731  -0.98434
   0.89617  -1.01917  -1.95544
  na=           77
  -0.84990  -0.18349   0.49904
  -0.12064  -1.91275   1.10431
   0.43454   1.28569  -1.95544
  na=           78
  -0.84990  -0.18349   0.49904
  -0.12064  -1.91275   1.10431
   0.43454   1.28569  -1.95544
  na=           79
  -1.51533  -0.69660  -0.63723
  -0.76851  -1.38573  -1.02717
  -0.88391  -1.07540  -1.96525
  na=           80
  -1.51533  -0.69660  -0.63723
  -0.76851  -1.38573  -1.02717
  -0.88391  -1.07540  -1.96525
  na=           81
  -2.05255   0.45835   1.20817
   0.38645  -0.84852  -0.03827
   1.37328  -0.22779  -1.96525
  na=           82
  -2.05255   0.45835   1.20817
   0.38645  -0.84852  -0.03827
   1.37328  -0.22779  -1.96525
  na=           83
  -0.78372   0.34611  -0.57094
   0.27421  -2.11735   1.06544
  -0.48937   1.30319  -1.96525
  na=           84
  -0.78372   0.34611  -0.57094
   0.27421  -2.11735   1.06544
  -0.48937   1.30319  -1.96525
  na=           85
  -2.06257  -1.17678  -0.88100
  -1.24889  -1.91116  -0.50902
  -0.75369  -0.37972  -1.01143
  na=           86
  -2.06257  -1.17678  -0.88100
  -1.24889  -1.91116  -0.50902
  -0.75369  -0.37972  -1.01143
  na=           87
  -2.99936   0.70803   0.88133
   0.63593  -0.97437  -0.50846
   0.70569  -0.46286  -1.01143
  na=           88
  -2.99936   0.70803   0.88133
   0.63593  -0.97437  -0.50846
   0.70569  -0.46286  -1.01143
  na=           89
  -0.89866   0.57691  -0.00032
   0.50480  -3.07506   1.01748
   0.04800   0.84257  -1.01143
  na=           90
  -0.89866   0.57691  -0.00032
   0.50480  -3.07506   1.01748
   0.04800   0.84257  -1.01143
  na=           91
  -2.87287  -0.67032  -0.84324
  -0.62048  -0.98079  -0.51249
  -0.67334  -0.45872  -1.00823
  na=           92
  -2.87287  -0.67032  -0.84324
  -0.62048  -0.98079  -0.51249
  -0.67334  -0.45872  -1.00823
  na=           93
  -2.01274   1.11707   0.86545
   1.16691  -1.84092  -0.47402
   0.73393  -0.35377  -1.00823
  na=           94
  -2.01274   1.11707   0.86545
   1.16691  -1.84092  -0.47402
   0.73393  -0.35377  -1.00823
  na=           95
  -0.89488  -0.52151  -0.02221
  -0.47167  -2.95878   0.98651
  -0.06059   0.81249  -1.00823
  na=           96
  -0.89488  -0.52151  -0.02221
  -0.47167  -2.95878   0.98651
  -0.06059   0.81249  -1.00823
  na=           97
  -2.87871   0.05706  -0.03181
   0.04156  -1.37754   0.09263
   0.00884   0.23693  -1.90506
  na=           98
  -2.87871   0.05706  -0.03181
   0.04156  -1.37754   0.09263
   0.00884   0.23693  -1.90506
  na=           99
  -1.71013   0.63312  -0.06431
   0.61762  -2.54612  -0.07386
  -0.20960  -0.11081  -1.90506
  na=          100
  -1.71013   0.63312  -0.06431
   0.61762  -2.54612  -0.07386
  -0.20960  -0.11081  -1.90506
  na=          101
  -1.79553  -0.66693   0.09612
  -0.68243  -2.46071  -0.01876
   0.20077  -0.12612  -1.90506
  na=          102
  -1.79553  -0.66693   0.09612
  -0.68243  -2.46071  -0.01876
   0.20077  -0.12612  -1.90506
  na=          103
   5.76361  -0.05370  -0.10065
   0.08581   4.38615  -0.07149
   0.05852   0.22400   4.76945
  na=          104
   5.76361  -0.05370  -0.10065
   0.08581   4.38615  -0.07149
   0.05852   0.22400   4.76945
  na=          105
   4.74442  -0.67424   0.11224
  -0.53473   5.40534  -0.05142
  -0.22325  -0.06132   4.76945
  na=          106
   4.74442  -0.67424   0.11224
  -0.53473   5.40534  -0.05142
  -0.22325  -0.06132   4.76945
  na=          107
   4.71661   0.51867  -0.01158
   0.65818   5.43315   0.12291
   0.16473  -0.16268   4.76945
  na=          108
   4.71661   0.51867  -0.01158
   0.65818   5.43315   0.12291
   0.16473  -0.16268   4.76945
  Norm of the difference between old and new effective charges:    0.07269898962407984888
  nqs=            1
 q=   0.00000000  0.00000000  0.00000000

      q-space grid ok, #points =    1

      fft-check success (sum of imaginary terms < 10^-12)

     Q2R          :      1.37s CPU      1.45s WALL


   This run was terminated on:  16: 3:56  18Aug2025            

=------------------------------------------------------------------------------=
   JOB DONE.
=------------------------------------------------------------------------------=
