
                                 *****************
                                 * O   R   C   A *
                                 *****************

                                            #,                                       
                                            ###                                      
                                            ####                                     
                                            #####                                    
                                            ######                                   
                                           ########,                                 
                                     ,,################,,,,,                         
                               ,,#################################,,                 
                          ,,##########################################,,             
                       ,#########################################, ''#####,          
                    ,#############################################,,   '####,        
                  ,##################################################,,,,####,       
                ,###########''''           ''''###############################       
              ,#####''   ,,,,##########,,,,          '''####'''          '####       
            ,##' ,,,,###########################,,,                        '##       
           ' ,,###''''                  '''############,,,                           
         ,,##''                                '''############,,,,        ,,,,,,###''
      ,#''                                            '''#######################'''  
     '                                                          ''''####''''         
             ,#######,   #######,   ,#######,      ##                                
            ,#'     '#,  ##    ##  ,#'     '#,    #''#        ,####,    ,#,          
            ##       ##  ##   ,#'  ##            #'  '#       #'       ,# #          
            ##       ##  #######   ##           ,######,      #####,      #          
            '#,     ,#'  ##    ##  '#,     ,#' ,#      #,     #,   #      #          
             '#######'   ##     ##  '#######'  #'      '#     '####' #    #          



                #########################################################
                #                        -***-                          #
                #          Department of theory and spectroscopy        #
                #                                                       #
                #                      Frank Neese                      #
                #                                                       #
                #     Directorship, Architecture, Infrastructure        #
                #                    SHARK, DRIVERS                     #
                #        Core code/Algorithms in most modules           #
                #                                                       #
                #        Max Planck Institute fuer Kohlenforschung      #
                #                Kaiser Wilhelm Platz 1                 #
                #                 D-45470 Muelheim/Ruhr                 #
                #                      Germany                          #
                #                                                       #
                #                  All rights reserved                  #
                #                        -***-                          #
                #########################################################


                         Program Version 6.1.0  -  RELEASE   -
                                (GIT: $679e74b$)
                          ($2025-06-10 18:02:51 +0200$)


 With contributions from (in alphabetic order):
[Max-Planck-Institut fuer Kohlenforschung]                               
  Daniel Aravena         : Magnetic Suceptibility                        
  Michael Atanasov       : Ab Initio Ligand Field Theory (pilot matlab implementation)
  Alexander A. Auer      : GIAO ZORA, VPT2 properties, NMR spectrum      
  Ute Becker             : All parallelization in ORCA, NUMFREQ, NUMCALC 
  Giovanni Bistoni       : ED, misc. LED, open-shell LED, HFLD           
  Dmytro Bykov           : pre 5.0 version of the SCF Hessian            
  Marcos Casanova-Páez   : Triplet and SCS-CIS(D). UHF-(DLPNO)-IP/EA/STEOM-CCSD. UHF-CVS-IP/STEOM-CCSD   
  Vijay G. Chilkuri      : MRCI spin determinant printing, contributions to CSF-ICE 
  Pauline Colinet        : FMM embedding                                 
  Dipayan Datta          : RHF DLPNO-CCSD density                        
  Achintya Kumar Dutta   : EOM-CC, STEOM-CC                              
  Nicolas Foglia         : Exact transition moments, OPA infrastructure, MCD improvements    
  Dmitry Ganyushin       : Spin-Orbit,Spin-Spin,Magnetic field MRCI      
  Miquel Garcia-Rates    : C-PCM and meta-GGA Hessian, CCSD/C-PCM, Gaussian charge scheme 
  Tiago L. C. Gouveia    : GS-ROHF, GS-ROCIS                             
  Yang Guo               : DLPNO-NEVPT2, F12-NEVPT2, CIM, IAO-localization        
  Andreas Hansen         : Spin unrestricted coupled pair/coupled cluster methods 
  Ingolf Harden          : AUTO-CI MPn and infrastructure                
  Benjamin Helmich-Paris : MC-RPA, TRAH-(SCF,CASSCF), AVAS, COSX integrals, SCF dyn. polar., MC-PDFT, srDFT 
  Lee Huntington         : MR-EOM, pCC                                   
  Robert Izsak           : Overlap fitted RIJCOSX, COSX-SCS-MP3, EOM     
  Riya Kayal             : Wick's Theorem for AUTO-CI, AUTO-CI UHF-CCSDT 
  Emily Kempfer          : AUTO-CI RHF CISDT and CCSDT, approximate NEVPT4
  Christian Kollmar      : KDIIS, OOCD, Brueckner-CCSD(T), CCSD density, CASPT2, CASPT2-K, improved NEVPT2 
  Axel Koslowski         : Symmetry handling                             
  Simone Kossmann        : meta-GGA functionals, TD-DFT gradient, OOMP2, (MP2 Hessian; deprecated post 5.0) 
  Lucas Lang             : DCDCAS, Hyperfine gauge corrections, ICE-SOC+SSC
  Marvin Lechner         : AUTO-CI (C++ implementation), FIC-MRCC        
  Spencer Leger          : CASSCF response                               
  Dagmar Lenk            : GEPOL surface, SMD, ORCA-2-JSON               
  Dimitrios Liakos       : Extrapolation schemes; Compound Job, Property file
  Dimitrios Manganas     : Further ROCIS development; embedding schemes. LFT, Crystal Embedding 
  Dimitrios Pantazis     : SARC Basis sets                               
  Anastasios Papadopoulos: AUTO-CI, single reference methods and gradients 
  Taras Petrenko         : pre 6.0 DFT Hessian and TD-DFT gradient,  ECA, NRVS 
  Petra Pikulova         : Analytic Raman intensities                    
  Peter Pinski           : DLPNO-MP2, DLPNO-MP2 Gradient                 
  Shashank Vittal Rao    : ES-AILFT, MagRelax                            
  Christoph Reimann      : Effective Core Potentials                     
  Marius Retegan         : Local ZFS, SOC                                
  Christoph Riplinger    : Optimizer, TS searches, QM/MM, DLPNO-CCSD(T), (RO)-DLPNO pert. Triples 
  Michael Roemelt        : Original ROCIS implementation, recursive CI coupling coefficients
  Masaaki Saitow         : Open-shell DLPNO-CCSD energy and density      
  Barbara Sandhoefer     : DKH picture change effects                    
  Yorick L. A. Schmerwitz: GMF and freeze-and-release deltaSCF, NEB S-IDPP initial path                    
  Kantharuban Sivalingam : CASSCF convergence/infrastructure, NEVPT2, NEVPT3, NEVPT4(SD), FIC-MRCI and CEPA variants
  Bernardo de Souza      : ESD, SOC TD-DFT                               
  Georgi L. Stoychev     : AutoAux, RI-MP2 NMR, DLPNO-MP2 response, X2C  
  Van Anh Tran           : RI-MP2 g-tensors                              
  Willem Van den Heuvel  : Paramagnetic NMR                              
  Zikuan Wang            : NOTCH, Electric field optimization            
  Frank Wennmohs         : Technical directorship and infrastructure     
  Hang Xu                : AUTO-CI-Response properties                   
                                                                         
[FACCTs GmbH]                                                            
  Markus Bursch, Nicolas Foglia, Miquel Garcia-Rates, Ingolf Harden, Hagen Neugebauer, Anastasios Papadopoulos, 
  Christoph Riplinger, Bernardo de Souza, Georgi L. Stoychev                                                    
                                                                 
  APM, various basis sets, CI-OPT, improved COSX, DLPNO-Multilevel,           
  DOCKER, DRACO, updates on ESD, Fragmentator, GOAT, IRC, LR-CPCM, L-BFGS, MBIS, meta-GGA TD-DFT gradient, ML-optimized integration grids, 
  MM, NACMEs, nearIR, NEB, NEB-TS, NL-DFT gradient (VV10), 2- and 3-layer-ONIOM, interface openCOSMO-RS, QMMM,   
  Crystal-QMMM, RESP, rigid body optimization, SF, symmetry and pop. for TD-DFT, various functionals, SOLVATOR                                   
                                                                         
[Other institutions]                                                     
  V. Asgeirsson          : NEB                                           
  Christoph Bannwarth    : sTDA-DFT, sTD-DFT, PBEh-3c, B97-3c, D3        
  Giovanni Bistoni       : ETS/NOCV, ADLD/ADEX, COVALED                  
  Martin Brehm           : Molecular dynamics                            
  Ronald Cardenas        : ETS/NOCV                                      
  Martina Colucci        : COVALED                                       
  Sebastian Ehlert       : rSCAN, r2SCAN, r2SCAN-3c, D4, dhf basis sets  
  Marvin Friede          : D4 for Fr, Ra, Ac-Lr                          
  Lars Goerigk           : TD-DFT with DH, B97 family of functionals     
  Stefan Grimme          : VdW corrections, initial TS optimization, DFT functionals, gCP, sTDA/sTD-DF 
  Waldemar Hujo          : DFT-NL                                        
  H. Jonsson             : NEB                                           
  Holger Kruse           : gCP                                           
  Marcel Mueller         : wB97X-3c, vDZP basis set                      
  Hagen Neugebauer       : wr2SCAN, Native XTB                           
  Gianluca Regni         : ADLD/ADEX                                     
  Tobias Risthaus        : pre 6.0 range-separated hybrid DFT and stability analysis
  Lukas Wittmann         : regularized MP2, r2SCAN double-hybrids, wr2SCAN        
                                                                         
We gratefully acknowledge several colleagues who have allowed us to      
interface, adapt or use parts of their codes:                            
  Ed Valeev, F. Pavosevic, A. Kumar             : LibInt (2-el integral package), F12 methods 
  Garnet Chan, S. Sharma, J. Yang, R. Olivares  : DMRG                   
  Ulf Ekstrom                                   : XCFun DFT Library      
  Mihaly Kallay                                 : mrcc  (arbitrary order and MRCC methods)
  Frank Weinhold                                : gennbo (NPA and NBO analysis)           
  Simon Mueller                                 : openCOSMO-RS                            
  Christopher J. Cramer and Donald G. Truhlar   : smd solvation model                     
  S Lehtola, MJT Oliveira, MAL Marques          : LibXC Library                           
  Liviu Ungur et al                             : ANISO software                          


 Your calculation uses the libint2 library for the computation of 2-el integrals
 For citations please refer to: http://libint.valeyev.net

 Your ORCA version has been built with support for libXC version: 7.0.0
 For citations please refer to: https://libxc.gitlab.io

 This ORCA versions uses:
   CBLAS   interface :  Fast vector & matrix operations
   LAPACKE interface :  Fast linear algebra routines
   SCALAPACK package :  Parallel linear algebra routines
   Shared memory     :  Shared parallel matrices
   BLAS/LAPACK       :  OpenBLAS 0.3.29  USE64BITINT DYNAMIC_ARCH NO_AFFINITY Zen SINGLE_THREADED
        Core in use  :  Zen
   Copyright (c) 2011-2014, The OpenBLAS Project


  ***********************************
  * Starting time: Thu Aug 28 17:11:22 2025
  * Host name:     gadolinium01
  * Process ID:    1004080
  * Working dir.:  /local/scratch/mehlhorn/62316
  ***********************************



***************************************
The coordinates will be read from file: start.xyz
***************************************


Your calculation utilizes the atom-pairwise dispersion correction
with the Becke-Johnson damping scheme (D3BJ)


Warning: RI is on but no J-basis has been assigned. Assigning Def2/J (nothing to worry about!)
================================================================================

----- Orbital basis set information -----
Your calculation utilizes the basis: def2-TZVP
   F. Weigend and R. Ahlrichs, Phys. Chem. Chem. Phys. 7, 3297 (2005).

----- AuxJ basis set information -----
Your calculation utilizes the auxiliary basis: def2/J
   H-Rn: F. Weigend, Phys. Chem. Chem. Phys. 8, 1057 (2006).
   Fr-Lr: K. Eichkorn, F. Weigend, O. Treutler, R. Ahlrichs; Theor. Chem. Acc. 97, 119 (1997).

================================================================================
                                        WARNINGS
                       Please study these warnings very carefully!
================================================================================

WARNING: Old DensityContainer found on disk!
         Will remove this file - 
         If you want to keep old densities, please start your calculation with a different basename. 


WARNING: Geometry Optimization
  ===> : Switching off AutoStart
         For restart on a previous wavefunction, please use MOREAD

================================================================================
                                       INPUT FILE
================================================================================
NAME = run.inp
|  1> # Geometry optimization for (AlH3)n cluster
|  2> 
|  3> %pal nprocs 24  end
|  4> 
|  5> %geom MaxIter 500 end
|  6> 
|  7> 
|  8> ! PBE def2-TZVP
|  9> ! RKS	# closed shell for AlH3
| 10> ! D3    #  dispersion correction
| 11> ! Freq 	# Frequency analysis to check the stabiltity of the structures
| 12> 
| 13> ! NoPop # population analysis not necessary	
| 14> 
| 15> ! DEFGRID3
| 16> ! TightSCF
| 17> ! TightOpt
| 18> 
| 19> ! SmallPrint
| 20> 
| 21> 
| 22> * xyzFile 0 1 start.xyz # only maingroup elements H and Al so there should be no net spin
| 23> 
| 24>                          ****END OF INPUT****
================================================================================

                       *****************************
                       * Geometry Optimization Run *
                       *****************************

Geometry optimization settings:
Update method            Update   .... BFGS
Choice of coordinates    CoordSys .... (2022) Redundant Internals
Initial Hessian          InHess   .... Almloef's Model
Max. no of cycles        MaxIter  .... 500

Convergence Tolerances:
Energy Change            TolE     ....  1.0000e-06 Eh
Max. Gradient            TolMAXG  ....  1.0000e-04 Eh/bohr
RMS Gradient             TolRMSG  ....  3.0000e-05 Eh/bohr
Max. Displacement        TolMAXD  ....  1.0000e-03 bohr
RMS Displacement         TolRMSD  ....  6.0000e-04 bohr
Strict Convergence                .... False

------------------------------------------------------------------------------
                        ORCA OPTIMIZATION COORDINATE SETUP
------------------------------------------------------------------------------

The optimization will be done in redundant internal coordinates (2022)
Making redundant internal coordinates   ...  (2022 redundants) done
Evaluating the initial hessian          ...  (Almloef) done
Evaluating the coordinates              ...  done
Calculating the B-matrix                .... done
Calculating the G-matrix                .... done
The number of degrees of freedom        ....  117

    -----------------------------------------------------------------
                    Redundant Internal Coordinates


    -----------------------------------------------------------------
         Definition                    Initial Value    Approx d2E/dq
    -----------------------------------------------------------------
      1. B(Al  1,Al  0)                  3.0616         0.066057   
      2. B(H   2,Al  1)                  1.7224         0.247235   
      3. B(H   3,Al  1)                  1.5866         0.407155   
      4. B(H   4,Al  1)                  1.7225         0.247147   
      5. B(H   4,Al  0)                  1.7218         0.247731   
      6. B(H   5,Al  0)                  1.5870         0.406583   
      7. B(H   6,Al  0)                  1.7564         0.218161   
      8. B(H   7,Al  1)                  1.5865         0.407190   
      9. B(Al  8,H   6)                  1.7753         0.203509   
     10. B(Al  8,H   2)                  1.7218         0.247758   
     11. B(Al  8,Al  1)                  3.0654         0.065149   
     12. B(Al  8,Al  0)                  3.0731         0.063330   
     13. B(H   9,Al  8)                  1.5870         0.406567   
     14. B(H  10,Al  8)                  1.5876         0.405680   
     15. B(H  11,Al  0)                  1.5876         0.405614   
     16. A(H   4,Al  0,H   6)          103.8877         0.319957   
     17. A(Al  1,Al  0,H   4)           27.2697         0.303975   
     18. A(Al  1,Al  0,Al  8)           59.9572         0.281577   
     19. A(Al  8,Al  0,H  11)          103.5570         0.327072   
     20. A(H   4,Al  0,H   5)          104.3940         0.354905   
     21. A(H   6,Al  0,H  11)           92.7126         0.347225   
     22. A(Al  1,Al  0,H   5)          131.4940         0.329485   
     23. A(Al  1,Al  0,H  11)           88.7687         0.329356   
     24. A(H   5,Al  0,H  11)          128.9146         0.386299   
     25. A(H   5,Al  0,H   6)          115.8549         0.347365   
     26. A(H   4,Al  0,Al  8)           74.2281         0.301933   
     27. A(Al  1,Al  0,H   6)           86.6913         0.297878   
     28. A(H   5,Al  0,Al  8)          122.4924         0.327201   
     29. A(H   4,Al  0,H  11)          108.6293         0.354762   
     30. A(H   6,Al  0,Al  8)           29.6999         0.295894   
     31. A(H   2,Al  1,H   7)          104.7516         0.354875   
     32. A(H   3,Al  1,H   4)          104.7521         0.354848   
     33. A(Al  0,Al  1,H   3)          127.3488         0.329562   
     34. A(H   2,Al  1,H   4)           95.8558         0.326464   
     35. A(H   4,Al  1,Al  8)           74.4477         0.303188   
     36. A(H   3,Al  1,Al  8)           98.6260         0.328809   
     37. A(H   2,Al  1,H   3)          109.3823         0.354869   
     38. A(H   2,Al  1,Al  8)           27.1180         0.303205   
     39. A(Al  0,Al  1,Al  8)           60.2073         0.282815   
     40. A(H   7,Al  1,Al  8)          127.3313         0.328814   
     41. A(Al  0,Al  1,H   4)           27.2587         0.303860   
     42. A(H   4,Al  1,H   7)          109.3707         0.354853   
     43. A(Al  0,Al  1,H   7)           98.6932         0.329567   
     44. A(Al  0,Al  1,H   2)           74.2400         0.303877   
     45. A(H   3,Al  1,H   7)          128.1015         0.386655   
     46. A(Al  1,H   2,Al  8)          125.7543         0.326597   
     47. A(Al  0,H   4,Al  1)          125.4716         0.326572   
     48. A(Al  0,H   6,Al  8)          120.9479         0.309904   
     49. A(Al  1,Al  8,H   2)           27.1278         0.303307   
     50. A(Al  0,Al  8,H   2)           73.9097         0.301938   
     51. A(Al  0,Al  8,Al  1)           59.8355         0.280974   
     52. A(H   6,Al  8,H  10)          120.5841         0.343203   
     53. A(H   2,Al  8,H  10)          108.6576         0.354778   
     54. A(Al  1,Al  8,H  10)           89.0465         0.328612   
     55. A(Al  0,Al  8,H  10)          104.3230         0.327081   
     56. A(H   6,Al  8,H   9)           95.5184         0.343329   
     57. A(H   9,Al  8,H  10)          128.8990         0.386307   
     58. A(H   2,Al  8,H   9)          104.3566         0.354910   
     59. A(Al  1,Al  8,H   9)          131.2888         0.328731   
     60. A(Al  0,Al  8,H   9)          121.8595         0.327199   
     61. A(H   2,Al  8,H   6)           92.1039         0.316357   
     62. A(Al  1,Al  8,H   6)           86.2563         0.293974   
     63. A(Al  0,Al  8,H   6)           29.3522         0.292664   
     64. D(H   2,Al  1,Al  0,H   4)   -141.1884         0.010000   
     65. D(H   3,Al  1,Al  0,H   6)     90.9865         0.010000   
     66. D(H   3,Al  1,Al  0,H   5)    -31.1576         0.010000   
     67. D(H   3,Al  1,Al  0,Al  8)     77.3190         0.010000   
     68. D(H   2,Al  1,Al  0,Al  8)    -25.2962         0.010000   
     69. D(H   3,Al  1,Al  0,H   4)    -38.5732         0.010000   
     70. D(H   2,Al  1,Al  0,H   6)    -11.6288         0.010000   
     71. D(H   2,Al  1,Al  0,H   5)   -133.7728         0.010000   
     72. D(H   2,Al  1,Al  0,H  11)     81.1602         0.010000   
     73. D(H   3,Al  1,Al  0,H  11)   -176.2245         0.010000   
     74. D(Al  8,H   2,Al  1,H   7)    149.4950         0.010000   
     75. D(Al  8,H   2,Al  1,H   3)    -70.2356         0.010000   
     76. D(Al  8,H   2,Al  1,Al  0)     54.4413         0.010000   
     77. D(Al  8,H   2,Al  1,H   4)     37.6690         0.010000   
     78. D(Al  1,H   4,Al  0,H   5)   -174.2720         0.010000   
     79. D(Al  0,H   4,Al  1,H   7)    -70.5744         0.010000   
     80. D(Al  0,H   4,Al  1,Al  8)     54.1336         0.010000   
     81. D(Al  0,H   4,Al  1,H   3)    149.1653         0.010000   
     82. D(Al  0,H   4,Al  1,H   2)     37.3271         0.010000   
     83. D(Al  1,H   4,Al  0,H  11)     45.2938         0.010000   
     84. D(Al  1,H   4,Al  0,Al  8)    -54.0199         0.010000   
     85. D(Al  1,H   4,Al  0,H   6)    -52.4530         0.010000   
     86. D(Al  8,H   6,Al  0,H   4)     -3.0445         0.010000   
     87. D(Al  8,H   6,Al  0,Al  1)    -24.3829         0.010000   
     88. D(Al  8,H   6,Al  0,H   5)    110.8073         0.010000   
     89. D(Al  8,H   6,Al  0,H  11)   -112.9913         0.010000   
     90. D(Al  1,Al  8,Al  0,H  11)    -80.5032         0.010000   
     91. D(Al  1,Al  8,Al  0,H   6)   -151.5684         0.010000   
     92. D(Al  1,Al  8,Al  0,H   5)    122.6204         0.010000   
     93. D(H   2,Al  8,Al  0,Al  1)     25.3499         0.010000   
     94. D(Al  1,Al  8,Al  0,H   4)     25.3605         0.010000   
     95. D(H   9,Al  8,H   6,Al  0)    155.5124         0.010000   
     96. D(H   2,Al  8,H   6,Al  0)     50.8675         0.010000   
     97. D(Al  1,Al  8,H   6,Al  0)     24.3631         0.010000   
     98. D(H  10,Al  8,H   2,Al  1)     45.7677         0.010000   
     99. D(H   9,Al  8,H   2,Al  1)   -173.8273         0.010000   
    100. D(H   6,Al  8,H   2,Al  1)    -77.5849         0.010000   
    101. D(H   6,Al  8,Al  1,H   2)    102.0284         0.010000   
    102. D(H   6,Al  8,Al  1,Al  0)    -13.5254         0.010000   
    103. D(H   2,Al  8,Al  1,H   7)    -38.1230         0.010000   
    104. D(H   2,Al  8,Al  1,H   4)   -140.8750         0.010000   
    105. D(H   2,Al  8,Al  1,H   3)    116.1150         0.010000   
    106. D(H   2,Al  8,Al  1,Al  0)   -115.5538         0.010000   
    107. D(Al  0,Al  8,Al  1,H   7)     77.4308         0.010000   
    108. D(Al  0,Al  8,Al  1,H   4)    -25.3212         0.010000   
    109. D(Al  0,Al  8,H   2,Al  1)    -54.2736         0.010000   
    110. D(Al  0,Al  8,Al  1,H   3)   -128.3311         0.010000   
    111. D(Al  0,Al  8,Al  1,H   2)    115.5538         0.010000   
    112. D(H   6,Al  8,Al  0,Al  1)    151.5684         0.010000   
    113. D(H   2,Al  8,Al  0,H  11)    -55.1533         0.010000   
    114. D(H   2,Al  8,Al  0,H   6)   -126.2185         0.010000   
    115. D(H   2,Al  8,Al  0,H   5)    147.9703         0.010000   
    116. D(H  10,Al  8,H   6,Al  0)    -62.3094         0.010000   
    117. D(H   2,Al  8,Al  0,H   4)     50.7104         0.010000   
    -----------------------------------------------------------------

Number of atoms                         .... 12
Number of degrees of freedom            .... 117


         *************************************************************
         *                GEOMETRY OPTIMIZATION CYCLE   1            *
         *************************************************************
---------------------------------
CARTESIAN COORDINATES (ANGSTROEM)
---------------------------------
  Al    -0.229340    1.518700    2.565120
  Al     0.000110   -0.000500   -0.083080
  H      0.872650   -0.936120    1.070100
  H     -1.104360   -0.908610   -0.770600
  H     -0.863310    0.941430    1.071970
  H     -1.473730    2.184180    3.291100
  H      0.424070    0.079110    3.330390
  H      1.099010    0.904060   -0.784020
  Al     0.255500   -1.515920    2.569270
  H      1.513500   -2.162230    3.289110
  H     -1.181020   -2.143500    2.318490
  H      1.213890    2.125800    2.302450

----------------------------
CARTESIAN COORDINATES (A.U.)
----------------------------
  NO LB      ZA    FRAG     MASS         X           Y           Z
   0 Al   13.0000    0    26.982   -0.433390    2.869927    4.847374
   1 Al   13.0000    0    26.982    0.000208   -0.000945   -0.156998
   2 H     1.0000    0     1.008    1.649070   -1.769010    2.022196
   3 H     1.0000    0     1.008   -2.086938   -1.717024   -1.456223
   4 H     1.0000    0     1.008   -1.631419    1.779045    2.025730
   5 H     1.0000    0     1.008   -2.784946    4.127502    6.219278
   6 H     1.0000    0     1.008    0.801376    0.149496    6.293525
   7 H     1.0000    0     1.008    2.076828    1.708426   -1.481583
   8 Al   13.0000    0    26.982    0.482825   -2.864674    4.855217
   9 H     1.0000    0     1.008    2.860101   -4.086023    6.215517
  10 H     1.0000    0     1.008   -2.231804   -4.050628    4.381311
  11 H     1.0000    0     1.008    2.293920    4.017180    4.351000

--------------------------------
INTERNAL COORDINATES (ANGSTROEM)
--------------------------------
 Al     0   0   0     0.000000000000     0.00000000     0.00000000
 Al     1   0   0     3.061630151161     0.00000000     0.00000000
 H      2   1   0     1.722363187136    74.24003491     0.00000000
 H      2   1   3     1.586569098212   127.34878958   102.61526173
 H      1   2   3     1.721817509581    27.26971164   218.81157770
 H      1   2   3     1.586952129996   131.49396811   226.22715149
 H      1   2   3     1.756417424504    86.69133980   348.37121766
 H      2   1   3     1.586545583083    98.69317047   257.02661132
 Al     3   2   1     1.721787690570   125.75426953    54.44125903
 H      9   3   2     1.586962583585   104.35659736   186.17266491
 H      9   3   2     1.587556920302   108.65756734    45.76771786
 H      1   2   3     1.587601578419    88.76873500    81.16023580

---------------------------
INTERNAL COORDINATES (A.U.)
---------------------------
 Al     0   0   0     0.000000000000     0.00000000     0.00000000
 Al     1   0   0     5.785642509051     0.00000000     0.00000000
 H      2   1   0     3.254794726834    74.24003491     0.00000000
 H      2   1   3     2.998181088162   127.34878958   102.61526173
 H      1   2   3     3.253763545699    27.26971164   218.81157770
 H      1   2   3     2.998904913336   131.49396811   226.22715149
 H      1   2   3     3.319147909159    86.69133980   348.37121766
 H      2   1   3     2.998136651009    98.69317047   257.02661132
 Al     3   2   1     3.253707195935   125.75426953    54.44125903
 H      9   3   2     2.998924667756   104.35659736   186.17266491
 H      9   3   2     3.000047801383   108.65756734    45.76771786
 H      1   2   3     3.000132192994    88.76873500    81.16023580

---------------------
BASIS SET INFORMATION
---------------------
There are 2 groups of distinct atoms

 Group   1 Type Al  : 14s9p3d1f contracted to 5s5p2d1f pattern {73211/51111/21/1}
 Group   2 Type H   : 5s1p contracted to 3s1p pattern {311/1}

Atom   0Al   basis set group =>   1
Atom   1Al   basis set group =>   1
Atom   2H    basis set group =>   2
Atom   3H    basis set group =>   2
Atom   4H    basis set group =>   2
Atom   5H    basis set group =>   2
Atom   6H    basis set group =>   2
Atom   7H    basis set group =>   2
Atom   8Al   basis set group =>   1
Atom   9H    basis set group =>   2
Atom  10H    basis set group =>   2
Atom  11H    basis set group =>   2
---------------------------------
AUXILIARY/J BASIS SET INFORMATION
---------------------------------
There are 2 groups of distinct atoms

 Group   1 Type Al  : 14s5p5d2f1g contracted to 8s4p3d1f1g pattern {71111111/2111/311/2/1}
 Group   2 Type H   : 5s2p1d contracted to 3s1p1d pattern {311/2/1}

Atom   0Al   basis set group =>   1
Atom   1Al   basis set group =>   1
Atom   2H    basis set group =>   2
Atom   3H    basis set group =>   2
Atom   4H    basis set group =>   2
Atom   5H    basis set group =>   2
Atom   6H    basis set group =>   2
Atom   7H    basis set group =>   2
Atom   8Al   basis set group =>   1
Atom   9H    basis set group =>   2
Atom  10H    basis set group =>   2
Atom  11H    basis set group =>   2


           ************************************************************
           *        Program running with 24 parallel MPI-processes    *
           *              working on a common directory               *
           ************************************************************
------------------------------------------------------------------------------
                             ORCA STARTUP CALCULATIONS
                           -- RI-GTO INTEGRALS CHOSEN --
------------------------------------------------------------------------------
------------------------------------------------------------------------------
                   ___                                                        
                  /   \      - P O W E R E D   B Y -                         
                 /     \                                                     
                 |  |  |   _    _      __       _____    __    __             
                 |  |  |  | |  | |    /  \     |  _  \  |  |  /  |          
                  \  \/   | |  | |   /    \    | | | |  |  | /  /          
                 / \  \   | |__| |  /  /\  \   | |_| |  |  |/  /          
                |  |  |   |  __  | /  /__\  \  |    /   |      \           
                |  |  |   | |  | | |   __   |  |    \   |  |\   \          
                \     /   | |  | | |  |  |  |  | |\  \  |  | \   \       
                 \___/    |_|  |_| |__|  |__|  |_| \__\ |__|  \__/        
                                                                              
                      - O R C A' S   B I G   F R I E N D -                    
                                      &                                       
                       - I N T E G R A L  F E E D E R -                       
                                                                              
 v1 FN, 2020, v2 2021, v3 2022-2024                                           
------------------------------------------------------------------------------


----------------------
SHARK INTEGRAL PACKAGE
----------------------

Number of atoms                             ...     12
Number of basis functions                   ...    165
Number of shells                            ...     75
Maximum angular momentum                    ...      3
Integral batch strategy                     ... SHARK/LIBINT Hybrid
RI-J (if used) integral strategy            ... SPLIT-RIJ (Revised 2003 algorithm where possible)
Printlevel                                  ...      1
Contraction scheme used                     ... SEGMENTED contraction
Prescreening option                         ... SCHWARTZ
   Thresh                                   ... 2.500e-11
   Tcut                                     ... 2.500e-12
   Tpresel                                  ... 2.500e-12 
Coulomb Range Separation                    ... NOT USED
Exchange Range Separation                   ... NOT USED
Multipole approximations                    ... NOT USED
Finite Nucleus Model                        ... NOT USED
CABS basis                                  ... NOT available
Auxiliary Coulomb fitting basis             ... AVAILABLE
   # of basis functions in Aux-J            ...    252
   # of shells in Aux-J                     ...     96
   Maximum angular momentum in Aux-J        ...      4
Auxiliary J/K fitting basis                 ... NOT available
Auxiliary Correlation fitting basis         ... NOT available
Auxiliary 'external' fitting basis          ... NOT available

Checking pre-screening integrals            ... done (  0.0 sec) Dimension = 75
   => SHARK Basis and OBASIS are compatible. Storing Pre-screening
Shell pair information
Shell pair cut-off parameter TPreSel        ...   2.5e-12
Total number of shell pairs                 ...      2850
Shell pairs after pre-screening             ...      2637
Total number of primitive shell pairs       ...      9315
Primitive shell pairs kept                  ...      6535
          la=0 lb=0:    835 shell pairs
          la=1 lb=0:    899 shell pairs
          la=1 lb=1:    264 shell pairs
          la=2 lb=0:    252 shell pairs
          la=2 lb=1:    144 shell pairs
          la=2 lb=2:     21 shell pairs
          la=3 lb=0:    126 shell pairs
          la=3 lb=1:     72 shell pairs
          la=3 lb=2:     18 shell pairs
          la=3 lb=3:      6 shell pairs

Checking whether 4 symmetric matrices of dimension 165 fit in memory
:Max Core in MB      =   4096.00
 MB in use           =      6.62
 MB left             =   4089.38
 MB needed           =      0.42
 Data fit in memory  = YES
Calculating RI/J V-Matrix + Cholesky decomp.... done (  0.1 sec)
Calculating Nuclear repulsion               ... done (  0.0 sec) ENN=    170.695550805255 Eh

Diagonalization of the overlap matrix:
Smallest eigenvalue                        ... 1.892e-03
Time for diagonalization                   ...    0.039 sec
Threshold for overlap eigenvalues          ... 1.000e-07
Number of eigenvalues below threshold      ... 0
Time for construction of square roots      ...    0.004 sec
Total time needed                          ...    0.045 sec

-------------------
DFT GRID GENERATION
-------------------

General Integration Accuracy     IntAcc      ... 4.959
Radial Grid Type                 RadialGrid  ... OptM3 with GC (2021)
Angular Grid (max. ang.)         AngularGrid ... 6 (Lebedev-590)
Angular grid pruning method      GridPruning ... 4 (adaptive)
Weight generation scheme         WeightScheme... mBecke (2022)
Basis function cutoff            BFCut       ... 1.0000e-11
Integration weight cutoff        WCut        ... 1.0000e-14
Partially contracted basis set               ... off
Rotationally invariant grid construction     ... off
Angular grids for H and He will be reduced by one unit

Total number of grid points                  ...   128081
Total number of batches                      ...     2007
Average number of points per batch           ...       63
Average number of grid points per atom       ...    10673
Grids setup in   1.3 sec
Initializing property integral containers    ... done (  0.0 sec)

SHARK setup successfully completed in   2.1 seconds

Maximum memory used throughout the entire STARTUP-calculation: 28.3 MB


           ************************************************************
           *        Program running with 24 parallel MPI-processes    *
           *              working on a common directory               *
           ************************************************************
-------------------------------------------------------------------------------
                                 ORCA GUESS
                   Start orbitals & Density for SCF / CASSCF
-------------------------------------------------------------------------------

------------
SCF SETTINGS
------------
Hamiltonian:
 Density Functional     Method          .... DFT(GTOs)
 Exchange Functional    Exchange        .... PBE
   PBE kappa parameter   XKappa         ....  0.804000
   PBE mue parameter    XMuePBE         ....  0.219520
 Correlation Functional Correlation     .... PBE
   PBE beta parameter  CBetaPBE         ....  0.066725
 LDA part of GGA corr.  LDAOpt          .... PW91-LDA
 Gradients option       PostSCFGGA      .... off
   NL short-range parameter             ....  6.400000
 RI-approximation to the Coulomb term is turned on
   Number of AuxJ basis functions       .... 252


General Settings:
 Integral files         IntName         .... run
 Hartree-Fock type      HFTyp           .... RHF
 Total Charge           Charge          ....    0
 Multiplicity           Mult            ....    1
 Number of Electrons    NEL             ....   48
 Basis Dimension        Dim             ....  165
 Nuclear Repulsion      ENuc            ....    170.6955508053 Eh

Convergence Acceleration:
 AO-DIIS                CNVDIIS         .... on
   Start iteration      DIISMaxIt       ....    12
   Startup error        DIISStart       ....  0.200000
   # of expansion vecs  DIISMaxEq       ....     5
   Bias factor          DIISBfac        ....   1.050
   Max. coefficient     DIISMaxC        ....  10.000
 MO-DIIS                CNVKDIIS        .... off
 Trust-Rad. Augm. Hess. CNVTRAH         .... auto
   Auto Start mean grad. ratio tolernc. ....  1.125000
   Auto Start start iteration           ....    50
   Auto Start num. interpolation iter.  ....    10
   Max. Number of Micro iterations      ....    24
   Max. Number of Macro iterations      .... Maxiter - #DIIS iter
   Number of Davidson start vectors     ....     2
   Converg. threshold    (grad. norm)   ....   1.000e-05
   Grad. Scal. Fac. for Micro threshold ....   0.100
   Minimum threshold for Micro iter.    ....   1.000e-02
   NR start threshold (gradient norm)   ....   1.000e-04
   Initial trust radius                 ....   0.400
   Minimum AH scaling param. (alpha)    ....   1.000
   Maximum AH scaling param. (alpha)    .... 1000.000
   Quad. conv. algorithm                .... NR
   White noise on init. David. guess    .... on
   Maximum white noise                  ....   0.010
   Pseudo random numbers                .... off
   Inactive MOs                         .... canonical
   Orbital update algorithm             .... Taylor
   Preconditioner                       .... Diag
   Full preconditioner red. dimension   ....   250
 SOSCF                 CNVSOSCF           .... on
   Start iteration     SOSCFMaxIt         ....   150
   Startup grad/error  SOSCFStart         ....  0.003300
   Hessian update      SOSCFHessUp        .... L-BFGS
   Autom. constraints  SOSCFAutoConstrain .... off
 Level Shifting         CNVShift        .... on
   Level shift para.    LevelShift      ....    0.2500
   Turn off err/grad.   ShiftErr        ....    0.0010
 Zerner damping         CNVZerner       .... off
 Static damping         CNVDamp         .... on
   Fraction old density DampFac         ....    0.7000
   Max. Damping (<1)    DampMax         ....    0.9800
   Min. Damping (>=0)   DampMin         ....    0.0000
   Turn off err/grad.   DampErr         ....    0.1000

SCF Procedure:
 Maximum # iterations   MaxIter         ....   125
 SCF integral mode      SCFMode         .... Direct
   Integral package                     .... SHARK and LIBINT hybrid scheme
 Reset frequency        DirectResetFreq ....    20
 Integral Threshold     Thresh          ....  2.500e-11 Eh
 Primitive CutOff       TCut            ....  2.500e-12 Eh

Convergence Tolerance:
 Convergence Check Mode ConvCheckMode   .... Total+1el-Energy
 Convergence forced     ConvForced      .... 0
 Energy Change          TolE            ....  1.000e-08 Eh
 1-El. energy change                    ....  1.000e-05 Eh
 Orbital Gradient       TolG            ....  1.000e-05
 Orbital Rotation angle TolX            ....  1.000e-05
 DIIS Error             TolErr          ....  5.000e-07

------------------------------
INITIAL GUESS: MODEL POTENTIAL
------------------------------
Loading Hartree-Fock densities                     ... done
Calculating cut-offs                               ... done
Initializing the effective Hamiltonian             ... done
Setting up the integral package (SHARK)            ... done
Starting the Coulomb interaction                   ... done (   0.2 sec)
Making the grid                                    ... done (   0.1 sec)
Mapping shells                                     ... done
Starting the XC term evaluation                    ... done (   0.0 sec)
  promolecular density results
     # of electrons  =     47.996113057
     EX              =    -56.687924876
     EC              =     -1.650328504
     EX+EC           =    -58.338253380
Transforming the Hamiltonian                       ... done (   0.0 sec)
Diagonalizing the Hamiltonian                      ... done (   0.0 sec)
Back transforming the eigenvectors                 ... done (   0.0 sec)
Now organizing SCF variables                       ... done
                      ------------------
                      INITIAL GUESS DONE (   0.3 sec)
                      ------------------
             **** ENERGY FILE WAS UPDATED (run.en.tmp) ****
Finished Guess after   1.1 sec
Maximum memory used throughout the entire GUESS-calculation: 10.5 MB


           ************************************************************
           *        Program running with 24 parallel MPI-processes    *
           *              working on a common directory               *
           ************************************************************

-------------------------------------------------------------------------------------------
                                      ORCA LEAN-SCF
                              memory conserving SCF solver
-------------------------------------------------------------------------------------------

----------------------------------------D-I-I-S--------------------------------------------
Iteration    Energy (Eh)           Delta-E    RMSDP     MaxDP     DIISErr   Damp  Time(sec)
-------------------------------------------------------------------------------------------
               ***  Starting incremental Fock matrix formation  ***
    1    -732.2072154031683340     0.00e+00  3.91e-03  1.93e-02  8.66e-02  0.700   0.5
    2    -732.2210721861033562    -1.39e-02  3.54e-03  1.77e-02  5.82e-02  0.700   0.1
                               ***Turning on AO-DIIS***
    3    -732.2298685466017787    -8.80e-03  2.03e-03  9.32e-03  3.41e-02  0.700   0.1
    4    -732.2350687580144495    -5.20e-03  4.19e-03  1.84e-02  2.21e-02  0.000   0.1
                              *** Initializing SOSCF ***
---------------------------------------S-O-S-C-F--------------------------------------
Iteration    Energy (Eh)           Delta-E    RMSDP     MaxDP     MaxGrad    Time(sec)
--------------------------------------------------------------------------------------
    5    -732.2453954969747656    -1.03e-02  4.64e-04  2.72e-03  2.02e-03     0.1
               *** Restarting incremental Fock matrix formation ***
    6    -732.2454316677839188    -3.62e-05  2.59e-04  8.99e-04  2.23e-04     0.1
    7    -732.2454347836061288    -3.12e-06  9.19e-05  7.35e-04  1.36e-04     0.1
    8    -732.2454361377961050    -1.35e-06  3.85e-05  2.64e-04  4.49e-05     0.1
    9    -732.2454362092438487    -7.14e-08  1.30e-05  5.12e-05  2.34e-05     0.1
   10    -732.2454362481201997    -3.89e-08  2.46e-06  2.43e-05  3.54e-06     0.1
   11    -732.2454362471775084     9.43e-10  1.07e-06  1.14e-05  1.92e-06     0.1
                 **** Energy Check signals convergence ****

               *****************************************************
               *                     SUCCESS                       *
               *           SCF CONVERGED AFTER  11 CYCLES          *
               *****************************************************

             **** ENERGY FILE WAS UPDATED (run.en.tmp) ****

----------------
TOTAL SCF ENERGY
----------------

Total Energy       :       -732.24543624889350 Eh          -19925.41131 eV

Components:
Nuclear Repulsion  :        170.69555080525478 Eh            4644.86208 eV
Electronic Energy  :       -902.94098705414831 Eh          -24570.27339 eV
One Electron Energy:      -1356.38446897887775 Eh          -36909.09782 eV
Two Electron Energy:        453.44348192472938 Eh           12338.82444 eV

Virial components:
Potential Energy   :      -1462.79631960645406 Eh          -39804.71149 eV
Kinetic Energy     :        730.55088335756056 Eh           19879.30018 eV
Virial Ratio       :          2.00231955491388

DFT components:
N(Alpha)           :       24.000001078656 electrons
N(Beta)            :       24.000001078656 electrons
N(Total)           :       48.000002157312 electrons
E(X)               :      -57.144897360756 Eh       
E(C)               :       -1.633336210025 Eh       
E(XC)              :      -58.778233570781 Eh       

---------------
SCF CONVERGENCE
---------------

  Last Energy change         ...   -9.4269e-10  Tolerance :   1.0000e-08
  Last MAX-Density change    ...    1.1366e-05  Tolerance :   1.0000e-07
  Last RMS-Density change    ...    1.0710e-06  Tolerance :   5.0000e-09
  Last DIIS Error            ...    2.0174e-03  Tolerance :   5.0000e-07
  Last Orbital Gradient      ...    1.9233e-06  Tolerance :   1.0000e-05
  Last Orbital Rotation      ...    2.0389e-06  Tolerance :   1.0000e-05


----------------
ORBITAL ENERGIES
----------------

  NO   OCC          E(Eh)            E(eV) 
   0   2.0000     -55.384141     -1507.0791 
   1   2.0000     -55.381734     -1507.0136 
   2   2.0000     -55.381181     -1506.9986 
   3   2.0000      -3.944466      -107.3344 
   4   2.0000      -3.942236      -107.2737 
   5   2.0000      -3.941767      -107.2609 
   6   2.0000      -2.549772       -69.3828 
   7   2.0000      -2.547312       -69.3159 
   8   2.0000      -2.547138       -69.3111 
   9   2.0000      -2.547038       -69.3084 
  10   2.0000      -2.545490       -69.2663 
  11   2.0000      -2.544639       -69.2432 
  12   2.0000      -2.541676       -69.1625 
  13   2.0000      -2.539368       -69.0997 
  14   2.0000      -2.538939       -69.0881 
  15   2.0000      -0.480967       -13.0878 
  16   2.0000      -0.394897       -10.7457 
  17   2.0000      -0.391505       -10.6534 
  18   2.0000      -0.317074        -8.6280 
  19   2.0000      -0.304566        -8.2877 
  20   2.0000      -0.297185        -8.0868 
  21   2.0000      -0.284277        -7.7356 
  22   2.0000      -0.276660        -7.5283 
  23   2.0000      -0.267952        -7.2913 
  24   0.0000      -0.059891        -1.6297 
  25   0.0000      -0.054581        -1.4852 
  26   0.0000      -0.053341        -1.4515 
  27   0.0000      -0.046028        -1.2525 
  28   0.0000      -0.026025        -0.7082 
  29   0.0000      -0.002999        -0.0816 
  30   0.0000       0.000715         0.0195 
  31   0.0000       0.016751         0.4558 
  32   0.0000       0.022440         0.6106 
  33   0.0000       0.034175         0.9299 
  34   0.0000       0.055794         1.5182 
*Only the first 10 virtual orbitals were printed.
-------
TIMINGS
-------

Total SCF time: 0 days 0 hours 0 min 2 sec 

Total time                  ....       2.689 sec
Sum of individual times     ....       2.528 sec  ( 94.0%)

SCF preparation             ....       0.735 sec  ( 27.3%)
Fock matrix formation       ....       1.479 sec  ( 55.0%)
  Startup                   ....       0.007 sec  (  0.4% of F)
  Split-RI-J                ....       0.499 sec  ( 33.7% of F)
  XC integration            ....       0.924 sec  ( 62.5% of F)
    XC Preparation          ....       0.000 sec  (  0.0% of XC)
    Basis function eval.    ....       0.213 sec  ( 23.1% of XC)
    Density eval.           ....       0.157 sec  ( 17.0% of XC)
    XC-Functional eval.     ....       0.037 sec  (  4.0% of XC)
    XC-Potential eval.      ....       0.173 sec  ( 18.8% of XC)
Diagonalization             ....       0.000 sec  (  0.0%)
Density matrix formation    ....       0.040 sec  (  1.5%)
Total Energy calculation    ....       0.023 sec  (  0.9%)
Population analysis         ....       0.000 sec  (  0.0%)
Orbital Transformation      ....       0.026 sec  (  1.0%)
Orbital Orthonormalization  ....       0.000 sec  (  0.0%)
DIIS solution               ....       0.121 sec  (  4.5%)
SOSCF solution              ....       0.104 sec  (  3.9%)
Finished LeanSCF after   2.7 sec

Maximum memory used throughout the entire LEANSCF-calculation: 9.2 MB


           ************************************************************
           *        Program running with 24 parallel MPI-processes    *
           *              working on a common directory               *
           ************************************************************

------------------------------------------------------------------------------
                         ORCA PROPERTY INTEGRAL CALCULATIONS
------------------------------------------------------------------------------

GBWName                                   ... run.gbw
Number of atoms                           ...     12
Number of basis functions                 ...    165
Max core memory                           ...   4096 MB

Dipole integrals                          ... YES
Quadrupole integrals                      ...  NO
Linear momentum integrals                 ...  NO
Angular momentum integrals                ...  NO
Higher moments length integrals           ...  NO
Higher moments velocity integrals         ...  NO
Kinetic energy integrals                  ...  NO
GIAO right hand sides                     ...  NO
GIAO dipole derivative integrals          ...  NO
SOC integrals                             ...  NO
EPR diamagnetic integrals (GIAO)          ...  NO
EPR gauge integrals                       ...  NO
Field gradient integrals                  ...  NO (   0 nuclei)
Spin-dipole/Fermi contact integrals       ...  NO (   0 nuclei)
Contact density integrals                 ...  NO (   0 nuclei)
Nucleus-orbit integrals                   ...  NO (   0 nuclei)
Geometric perturbations                   ...  NO (  12 nuclei)

Choice of electric origin   ... Center of mass
Position of electric origin ... (  0.0255,  0.0031,  3.1811) 
Choice of magnetic origin   ... GIAO
Position of magnetic origin ... (  0.0000,  0.0000,  0.0000) 

Calculating integrals                     ... Electric Dipole (Length)     done (  0.0 sec)

Property integrals calculated in   0.0 sec

Maximum memory used throughout the entire PROPINT-calculation: 10.8 MB


-------------------------------------------------------------------------------
                          DFT DISPERSION CORRECTION                            
                                                                               
                              DFTD3 V3.1  Rev 1                                
                          USING Becke-Johnson damping                          
-------------------------------------------------------------------------------
The PBE functional is recognized
Active option DFTDOPT                   ...         4   

molecular C6(AA) [au] = 2779.593622 


            DFT-D V3
 parameters
 s6 scaling factor         :     1.0000 
 a1 scaling factor         :     0.4289 
 s8 scaling factor         :     0.7875 
 a2 scaling factor         :     4.4407 
 ad hoc parameters k1-k3   :    16.0000     1.3333    -4.0000 

 Edisp/kcal,au: -5.698886343393  -0.009081752501 
 E6   /kcal   :  -3.583182173 
 E8   /kcal   :  -2.115704170 
 % E8         :  37.124870415 

-------------------------   ----------------
Dispersion correction           -0.009081753
-------------------------   ----------------


-------------------------   --------------------
FINAL SINGLE POINT ENERGY      -732.254518001395
-------------------------   --------------------



           ************************************************************
           *        Program running with 24 parallel MPI-processes    *
           *              working on a common directory               *
           ************************************************************
------------------------------------------------------------------------------
                         ORCA SCF GRADIENT CALCULATION
------------------------------------------------------------------------------

Nuc. rep. gradient        (SHARK) ... done (  0.0 sec)
HCore & Overlap gradient  (SHARK) ... done (  0.0 sec)
Split-RIJ-J gradient      (SHARK) ... done (  0.4 sec)
XC gradient                       ... done (  0.4 sec)
Dispersion correction             ... done (  0.1 sec)

-------------------
DISPERSION GRADIENT
-------------------

   1   Al  :   -0.000049220    0.000289416    0.000175248
   2   Al  :   -0.000010438   -0.000001576   -0.000345917
   3   H   :    0.000068106   -0.000089567   -0.000055257
   4   H   :   -0.000070840   -0.000036373   -0.000162551
   5   H   :   -0.000076297    0.000089369   -0.000057113
   6   H   :   -0.000081291    0.000109730    0.000076358
   7   H   :    0.000034968    0.000005455    0.000138759
   8   H   :    0.000068571    0.000036116   -0.000165684
   9   Al  :    0.000049212   -0.000289957    0.000176420
  10   H   :    0.000074145   -0.000108061    0.000076310
  11   H   :   -0.000089168   -0.000173993    0.000071345
  12   H   :    0.000082253    0.000169441    0.000072084

Difference to translation invariance:
           :   -0.0000000000    0.0000000000    0.0000000000

Difference to rotation invariance:
           :   -0.0000000000    0.0000000000    0.0000000000

Norm of the Dispersion gradient    ...    0.0007779867
RMS gradient                       ...    0.0001296645
MAX gradient                       ...    0.0003459172

------------------
CARTESIAN GRADIENT
------------------

   1   Al  :   -0.007568811    0.001549032   -0.001826754
   2   Al  :   -0.001449788    0.000745994    0.000034586
   3   H   :    0.000375737    0.000972892    0.001389826
   4   H   :    0.000262988   -0.000070801   -0.000151575
   5   H   :    0.000124783    0.000878654   -0.001354430
   6   H   :    0.000127371    0.002207418   -0.000760862
   7   H   :    0.012728409    0.004233128    0.004136888
   8   H   :    0.000278859   -0.000022292    0.000140721
   9   Al  :   -0.007066000   -0.006227386   -0.002622991
  10   H   :    0.000311947    0.002602139    0.000685870
  11   H   :    0.000951175   -0.003001947   -0.001697551
  12   H   :    0.000923329   -0.003866831    0.002026270

Difference to translation invariance:
           :    0.0000000000   -0.0000000000   -0.0000000000

Difference to rotation invariance:
           :   -0.0000108342    0.0000027614   -0.0000024731

Norm of the Cartesian gradient     ...    0.0202402937
RMS gradient                       ...    0.0033733823
MAX gradient                       ...    0.0127284090

-------
TIMINGS
-------

Total SCF gradient time     ....        0.918 sec

Densities                   ....       0.001 sec  (  0.1%)
One electron gradient       ....       0.024 sec  (  2.6%)
RI-J Coulomb gradient       ....       0.374 sec  ( 40.8%)
XC gradient                 ....       0.428 sec  ( 46.7%)

Maximum memory used throughout the entire SCFGRAD-calculation: 29.2 MB
------------------------------------------------------------------------------
                         ORCA GEOMETRY RELAXATION STEP
------------------------------------------------------------------------------

Reading the OPT-File                    .... done
Getting information on internals        .... done
Copying old internal coords+grads       .... done
Making the new internal coordinates     .... (2022 redundants) done
Validating the new internal coordinates .... (2022 redundants) done
Calculating the B-matrix                .... done
Calculating the G,G- and P matrices     .... done
Transforming gradient to internals      .... done
Projecting the internal gradient        .... done
Number of atoms                         ....  12
Number of internal coordinates          .... 117
Current Energy                          ....  -732.254518001 Eh
Current gradient norm                   ....     0.020240294 Eh/bohr
Maximum allowed component of the step   ....  0.300
Current trust radius                    ....  0.300
Evaluating the initial hessian          ....  (Almloef) done
Projecting the Hessian                  .... done
Forming the augmented Hessian           .... done
Diagonalizing the augmented Hessian     .... done
Last element of RFO vector              ....  0.993784247
Lowest eigenvalues of augmented Hessian:
 -0.001153659  0.020268410  0.024138654  0.032738392  0.059071341
Length of the computed step             ....  0.112019558
The final length of the internal step   ....  0.112019558
Converting the step to Cartesian space:
 Initial RMS(Int)=    0.0103562118
Transforming coordinates:
 Iter   0:  RMS(Cart)=    0.0120985386 RMS(Int)=    0.0104503145
done
Storing new coordinates                 .... done

                                .--------------------.
          ----------------------|Geometry convergence|-------------------------
          Item                value                   Tolerance       Converged
          ---------------------------------------------------------------------
          RMS gradient        0.0012955763            0.0000300000      NO
          MAX gradient        0.0052998291            0.0001000000      NO
          RMS step            0.0103562118            0.0006000000      NO
          MAX step            0.0284560838            0.0010000000      NO
          -------------------------------------------------------------------------
          ........................................................
          Max(Bonds)      0.0138      Max(Angles)    1.56
          Max(Dihed)        1.63      Max(Improp)    0.00
          ---------------------------------------------------------------------

The optimization has not yet converged - more geometry cycles are needed


    ---------------------------------------------------------------------------
                         Redundant Internal Coordinates
                            (Angstroem and degrees)

        Definition                    Value    dE/dq     Step     New-Value
    ----------------------------------------------------------------------------
     1. B(Al  1,Al  0)                3.0616 -0.000668  0.0004    3.0621   
     2. B(H   2,Al  1)                1.7224  0.000318 -0.0021    1.7203   
     3. B(H   3,Al  1)                1.5866 -0.000077  0.0001    1.5867   
     4. B(H   4,Al  1)                1.7225 -0.000391  0.0012    1.7237   
     5. B(H   4,Al  0)                1.7218  0.000450 -0.0008    1.7210   
     6. B(H   5,Al  0)                1.5870  0.000478 -0.0006    1.5863   
     7. B(H   6,Al  0)                1.7564  0.002720 -0.0067    1.7497   
     8. B(H   7,Al  1)                1.5865  0.000118 -0.0002    1.5864   
     9. B(Al  8,H   6)                1.7753  0.005300 -0.0138    1.7616   
    10. B(Al  8,H   2)                1.7218 -0.000852  0.0004    1.7222   
    11. B(Al  8,Al  1)                3.0654  0.000587 -0.0028    3.0626   
    12. B(Al  8,Al  0)                3.0731  0.001845 -0.0067    3.0664   
    13. B(H   9,Al  8)                1.5870 -0.000501  0.0007    1.5876   
    14. B(H  10,Al  8)                1.5876  0.000594 -0.0008    1.5868   
    15. B(H  11,Al  0)                1.5876 -0.000975  0.0013    1.5889   
    16. A(H   4,Al  0,H   6)          103.89  0.002097   -0.47    103.42   
    17. A(Al  1,Al  0,H   4)           27.27  0.000175    0.01     27.28   
    18. A(Al  1,Al  0,Al  8)           59.96 -0.000002    0.01     59.96   
    19. A(Al  8,Al  0,H  11)          103.56 -0.002370    0.57    104.13   
    20. A(H   4,Al  0,H   5)          104.39  0.000035   -0.16    104.24   
    21. A(H   6,Al  0,H  11)           92.71 -0.003679    1.56     94.27   
    22. A(Al  1,Al  0,H   5)          131.49  0.000263   -0.15    131.34   
    23. A(Al  1,Al  0,H  11)           88.77 -0.000527   -0.03     88.74   
    24. A(H   5,Al  0,H  11)          128.91  0.000612   -0.01    128.91   
    25. A(H   5,Al  0,H   6)          115.85  0.001062   -0.83    115.02   
    26. A(H   4,Al  0,Al  8)           74.23  0.000341   -0.08     74.15   
    27. A(Al  1,Al  0,H   6)           86.69  0.001403   -0.07     86.62   
    28. A(H   5,Al  0,Al  8)          122.49  0.001387   -0.36    122.13   
    29. A(H   4,Al  0,H  11)          108.63  0.000214   -0.16    108.47   
    30. A(H   6,Al  0,Al  8)           29.70  0.001788   -0.43     29.27   
    31. A(H   2,Al  1,H   7)          104.75 -0.000233    0.09    104.84   
    32. A(H   3,Al  1,H   4)          104.75  0.000211   -0.09    104.66   
    33. A(Al  0,Al  1,H   3)          127.35  0.000482   -0.06    127.29   
    34. A(H   2,Al  1,H   4)           95.86  0.000265   -0.08     95.78   
    35. A(H   4,Al  1,Al  8)           74.45  0.000761   -0.21     74.24   
    36. A(H   3,Al  1,Al  8)           98.63  0.000411    0.02     98.65   
    37. A(H   2,Al  1,H   3)          109.38  0.000302   -0.01    109.37   
    38. A(H   2,Al  1,Al  8)           27.12 -0.000450    0.07     27.19   
    39. A(Al  0,Al  1,Al  8)           60.21  0.000376   -0.12     60.09   
    40. A(H   7,Al  1,Al  8)          127.33 -0.000533    0.07    127.41   
    41. A(Al  0,Al  1,H   4)           27.26  0.000308   -0.02     27.24   
    42. A(H   4,Al  1,H   7)          109.37 -0.000402    0.05    109.42   
    43. A(Al  0,Al  1,H   7)           98.69 -0.000463   -0.00     98.69   
    44. A(Al  0,Al  1,H   2)           74.24 -0.000076    0.00     74.24   
    45. A(H   3,Al  1,H   7)          128.10 -0.000048    0.02    128.12   
    46. A(Al  1,H   2,Al  8)          125.75  0.000716   -0.10    125.66   
    47. A(Al  0,H   4,Al  1)          125.47 -0.000483    0.01    125.48   
    48. A(Al  0,H   6,Al  8)          120.95 -0.003124    0.74    121.68   
    49. A(Al  1,Al  8,H   2)           27.13 -0.000266    0.03     27.16   
    50. A(Al  0,Al  8,H   2)           73.91 -0.000648    0.19     74.10   
    51. A(Al  0,Al  8,Al  1)           59.84 -0.000375    0.11     59.95   
    52. A(H   6,Al  8,H  10)          120.58  0.004634   -1.37    119.22   
    53. A(H   2,Al  8,H  10)          108.66 -0.001314    0.16    108.82   
    54. A(Al  1,Al  8,H  10)           89.05 -0.000101    0.02     89.07   
    55. A(Al  0,Al  8,H  10)          104.32  0.002931   -0.45    103.87   
    56. A(H   6,Al  8,H   9)           95.52 -0.003493    0.92     96.44   
    57. A(H   9,Al  8,H  10)          128.90  0.000197   -0.06    128.84   
    58. A(H   2,Al  8,H   9)          104.36 -0.000199    0.04    104.40   
    59. A(Al  1,Al  8,H   9)          131.29 -0.000594    0.09    131.38   
    60. A(Al  0,Al  8,H   9)          121.86 -0.002163    0.35    122.21   
    61. A(H   2,Al  8,H   6)           92.10 -0.000145    0.59     92.69   
    62. A(Al  1,Al  8,H   6)           86.26  0.000631    0.15     86.41   
    63. A(Al  0,Al  8,H   6)           29.35  0.001336   -0.30     29.05   
    64. D(H   2,Al  1,Al  0,H   4)   -141.19 -0.000335    0.23   -140.96   
    65. D(H   3,Al  1,Al  0,H   6)     90.99  0.001816   -0.91     90.07   
    66. D(H   3,Al  1,Al  0,H   5)    -31.16 -0.001237    0.41    -30.75   
    67. D(H   3,Al  1,Al  0,Al  8)     77.32  0.000581   -0.03     77.29   
    68. D(H   2,Al  1,Al  0,Al  8)    -25.30  0.000311   -0.02    -25.32   
    69. D(H   3,Al  1,Al  0,H   4)    -38.57 -0.000065    0.22    -38.36   
    70. D(H   2,Al  1,Al  0,H   6)    -11.63  0.001546   -0.91    -12.53   
    71. D(H   2,Al  1,Al  0,H   5)   -133.77 -0.001507    0.42   -133.35   
    72. D(H   2,Al  1,Al  0,H  11)     81.16 -0.002143    0.66     81.82   
    73. D(H   3,Al  1,Al  0,H  11)   -176.22 -0.001873    0.65   -175.57   
    74. D(Al  8,H   2,Al  1,H   7)    149.49  0.000158   -0.25    149.25   
    75. D(Al  8,H   2,Al  1,H   3)    -70.24  0.000144   -0.16    -70.39   
    76. D(Al  8,H   2,Al  1,Al  0)     54.44  0.000610   -0.22     54.22   
    77. D(Al  8,H   2,Al  1,H   4)     37.67  0.000547   -0.29     37.38   
    78. D(Al  1,H   4,Al  0,H   5)   -174.27 -0.000925    0.16   -174.11   
    79. D(Al  0,H   4,Al  1,H   7)    -70.57 -0.000079    0.13    -70.44   
    80. D(Al  0,H   4,Al  1,Al  8)     54.13 -0.000429    0.15     54.29   
    81. D(Al  0,H   4,Al  1,H   3)    149.17  0.000138    0.15    149.31   
    82. D(Al  0,H   4,Al  1,H   2)     37.33 -0.000314    0.21     37.54   
    83. D(Al  1,H   4,Al  0,H  11)     45.29 -0.001943    0.43     45.72   
    84. D(Al  1,H   4,Al  0,Al  8)    -54.02  0.000566   -0.20    -54.22   
    85. D(Al  1,H   4,Al  0,H   6)    -52.45  0.001242   -1.06    -53.51   
    86. D(Al  8,H   6,Al  0,H   4)     -3.04 -0.001152    1.63     -1.41   
    87. D(Al  8,H   6,Al  0,Al  1)    -24.38 -0.000880    1.30    -23.08   
    88. D(Al  8,H   6,Al  0,H   5)    110.81  0.000745    0.74    111.55   
    89. D(Al  8,H   6,Al  0,H  11)   -112.99 -0.000637    1.43   -111.56   
    90. D(Al  1,Al  8,Al  0,H  11)    -80.50 -0.000850    0.39    -80.11   
    91. D(Al  1,Al  8,Al  0,H   6)   -151.57  0.001096   -1.56   -153.12   
    92. D(Al  1,Al  8,Al  0,H   5)    122.62 -0.000067   -0.08    122.54   
    93. D(H   2,Al  8,Al  0,Al  1)     25.35 -0.000063   -0.04     25.31   
    94. D(Al  1,Al  8,Al  0,H   4)     25.36 -0.000034    0.08     25.44   
    95. D(H   9,Al  8,H   6,Al  0)    155.51  0.000256   -1.18    154.33   
    96. D(H   2,Al  8,H   6,Al  0)     50.87  0.000693   -1.35     49.52   
    97. D(Al  1,Al  8,H   6,Al  0)     24.36  0.000799   -1.28     23.09   
    98. D(H  10,Al  8,H   2,Al  1)     45.77  0.003052   -0.36     45.41   
    99. D(H   9,Al  8,H   2,Al  1)   -173.83  0.002083   -0.28   -174.11   
   100. D(H   6,Al  8,H   2,Al  1)    -77.58 -0.001581    0.83    -76.75   
   101. D(H   6,Al  8,Al  1,H   2)    102.03 -0.001464    1.01    103.04   
   102. D(H   6,Al  8,Al  1,Al  0)    -13.53 -0.001048    0.82    -12.70   
   103. D(H   2,Al  8,Al  1,H   7)    -38.12  0.000482   -0.36    -38.48   
   104. D(H   2,Al  8,Al  1,H   4)   -140.88  0.000382   -0.25   -141.13   
   105. D(H   2,Al  8,Al  1,H   3)    116.12  0.000195   -0.13    115.98   
   106. D(H   2,Al  8,Al  1,Al  0)   -115.55  0.000416   -0.19   -115.74   
   107. D(Al  0,Al  8,Al  1,H   7)     77.43  0.000066   -0.17     77.26   
   108. D(Al  0,Al  8,Al  1,H   4)    -25.32 -0.000034   -0.07    -25.39   
   109. D(Al  0,Al  8,H   2,Al  1)    -54.27 -0.000234    0.11    -54.17   
   110. D(Al  0,Al  8,Al  1,H   3)   -128.33 -0.000221    0.05   -128.28   
   111. D(Al  0,Al  8,Al  1,H   2)    115.55 -0.000416    0.19    115.74   
   112. D(H   6,Al  8,Al  0,Al  1)    151.57 -0.001096    1.56    153.12   
   113. D(H   2,Al  8,Al  0,H  11)    -55.15 -0.000913    0.35    -54.80   
   114. D(H   2,Al  8,Al  0,H   6)   -126.22  0.001032   -1.60   -127.82   
   115. D(H   2,Al  8,Al  0,H   5)    147.97 -0.000130   -0.12    147.85   
   116. D(H  10,Al  8,H   6,Al  0)    -62.31  0.001004   -1.53    -63.83   
   117. D(H   2,Al  8,Al  0,H   4)     50.71 -0.000097    0.04     50.75   
    ----------------------------------------------------------------------------

Geometry step timings:
Preparation and reading OPT file:      0.000 s ( 0.325 %)
Internal coordinates            :      0.000 s ( 0.466 %)
B/P matrices and projection     :      0.002 s (16.451 %)
Hessian update/contruction      :      0.002 s (11.788 %)
Making the step                 :      0.008 s (57.065 %)
Converting the step to Cartesian:      0.000 s ( 2.871 %)
Storing new data                :      0.000 s ( 0.536 %)
Checking convergence            :      0.000 s ( 0.522 %)
Final printing                  :      0.001 s ( 9.954 %)
Total time                      :      0.014 s

Time for energy+gradient        :     12.017 s
Time for complete geometry iter :     13.058 s

         *************************************************************
         *                GEOMETRY OPTIMIZATION CYCLE   2            *
         *************************************************************
---------------------------------
CARTESIAN COORDINATES (ANGSTROEM)
---------------------------------
  Al    -0.223796    1.516356    2.566441
  Al     0.003583   -0.001472   -0.083231
  H      0.876084   -0.936663    1.067280
  H     -1.102455   -0.909143   -0.769038
  H     -0.860012    0.937790    1.075683
  H     -1.471204    2.172320    3.294545
  H      0.402423    0.071155    3.328538
  H      1.099844    0.905033   -0.785442
  Al     0.259053   -1.511729    2.568798
  H      1.514211   -2.167973    3.286041
  H     -1.183450   -2.127219    2.327468
  H      1.212687    2.137945    2.293219

----------------------------
CARTESIAN COORDINATES (A.U.)
----------------------------
  NO LB      ZA    FRAG     MASS         X           Y           Z
   0 Al   13.0000    0    26.982   -0.422914    2.865498    4.849870
   1 Al   13.0000    0    26.982    0.006772   -0.002782   -0.157284
   2 H     1.0000    0     1.008    1.655558   -1.770037    2.016866
   3 H     1.0000    0     1.008   -2.083337   -1.718031   -1.453272
   4 H     1.0000    0     1.008   -1.625186    1.772165    2.032746
   5 H     1.0000    0     1.008   -2.780172    4.105091    6.225787
   6 H     1.0000    0     1.008    0.760470    0.134464    6.290025
   7 H     1.0000    0     1.008    2.078404    1.710264   -1.484271
   8 Al   13.0000    0    26.982    0.489540   -2.856753    4.854325
   9 H     1.0000    0     1.008    2.861445   -4.096876    6.209717
  10 H     1.0000    0     1.008   -2.236396   -4.019862    4.398276
  11 H     1.0000    0     1.008    2.291646    4.040131    4.333557

--------------------------------
INTERNAL COORDINATES (ANGSTROEM)
--------------------------------
 Al     0   0   0     0.000000000000     0.00000000     0.00000000
 Al     1   0   0     3.062068787713     0.00000000     0.00000000
 H      2   1   0     1.720323431373    74.24156231     0.00000000
 H      2   1   3     1.586668932561   127.28775820   102.60494559
 H      1   2   3     1.721008233157    27.28466110   219.03909943
 H      1   2   3     1.586331992612   131.34055100   226.64813316
 H      1   2   3     1.749728546376    86.61178939   347.47065544
 H      2   1   3     1.586392104897    98.69053772   256.92929504
 Al     3   2   1     1.722203525241   125.65393018    54.21991183
 H      9   3   2     1.587613325539   104.39783491   185.89509353
 H      9   3   2     1.586784001113   108.82163520    45.40684943
 H      1   2   3     1.588869616141    88.73852713    81.82394823

---------------------------
INTERNAL COORDINATES (A.U.)
---------------------------
 Al     0   0   0     0.000000000000     0.00000000     0.00000000
 Al     1   0   0     5.786471412006     0.00000000     0.00000000
 H      2   1   0     3.250940147062    74.24156231     0.00000000
 H      2   1   3     2.998369747742   127.28775820   102.60494559
 H      1   2   3     3.252234234890    27.28466110   219.03909943
 H      1   2   3     2.997733023514   131.34055100   226.64813316
 H      1   2   3     3.306507761354    86.61178939   347.47065544
 H      2   1   3     2.997846619271    98.69053772   256.92929504
 Al     3   2   1     3.254493009579   125.65393018    54.21991183
 H      9   3   2     3.000154391833   104.39783491   185.89509353
 H      9   3   2     2.998587195791   108.82163520    45.40684943
 H      1   2   3     3.002528437015    88.73852713    81.82394823



           ************************************************************
           *        Program running with 24 parallel MPI-processes    *
           *              working on a common directory               *
           ************************************************************
------------------------------------------------------------------------------
                   ___                                                        
                  /   \      - P O W E R E D   B Y -                         
                 /     \                                                     
                 |  |  |   _    _      __       _____    __    __             
                 |  |  |  | |  | |    /  \     |  _  \  |  |  /  |          
                  \  \/   | |  | |   /    \    | | | |  |  | /  /          
                 / \  \   | |__| |  /  /\  \   | |_| |  |  |/  /          
                |  |  |   |  __  | /  /__\  \  |    /   |      \           
                |  |  |   | |  | | |   __   |  |    \   |  |\   \          
                \     /   | |  | | |  |  |  |  | |\  \  |  | \   \       
                 \___/    |_|  |_| |__|  |__|  |_| \__\ |__|  \__/        
                                                                              
                      - O R C A' S   B I G   F R I E N D -                    
                                      &                                       
                       - I N T E G R A L  F E E D E R -                       
                                                                              
 v1 FN, 2020, v2 2021, v3 2022-2024                                           
------------------------------------------------------------------------------


----------------------
SHARK INTEGRAL PACKAGE
----------------------

Number of atoms                             ...     12
Number of basis functions                   ...    165
Number of shells                            ...     75
Maximum angular momentum                    ...      3
Integral batch strategy                     ... SHARK/LIBINT Hybrid
RI-J (if used) integral strategy            ... SPLIT-RIJ (Revised 2003 algorithm where possible)
Printlevel                                  ...      1
Contraction scheme used                     ... SEGMENTED contraction
Prescreening option                         ... SCHWARTZ
   Thresh                                   ... 2.500e-11
   Tcut                                     ... 2.500e-12
   Tpresel                                  ... 2.500e-12 
Coulomb Range Separation                    ... NOT USED
Exchange Range Separation                   ... NOT USED
Multipole approximations                    ... NOT USED
Finite Nucleus Model                        ... NOT USED
CABS basis                                  ... NOT available
Auxiliary Coulomb fitting basis             ... AVAILABLE
   # of basis functions in Aux-J            ...    252
   # of shells in Aux-J                     ...     96
   Maximum angular momentum in Aux-J        ...      4
Auxiliary J/K fitting basis                 ... NOT available
Auxiliary Correlation fitting basis         ... NOT available
Auxiliary 'external' fitting basis          ... NOT available

Checking pre-screening integrals            ... done (  0.0 sec) Dimension = 75
   => SHARK Basis and OBASIS are compatible. Storing Pre-screening
Shell pair information
Shell pair cut-off parameter TPreSel        ...   2.5e-12
Total number of shell pairs                 ...      2850
Shell pairs after pre-screening             ...      2637
Total number of primitive shell pairs       ...      9315
Primitive shell pairs kept                  ...      6538
          la=0 lb=0:    835 shell pairs
          la=1 lb=0:    899 shell pairs
          la=1 lb=1:    264 shell pairs
          la=2 lb=0:    252 shell pairs
          la=2 lb=1:    144 shell pairs
          la=2 lb=2:     21 shell pairs
          la=3 lb=0:    126 shell pairs
          la=3 lb=1:     72 shell pairs
          la=3 lb=2:     18 shell pairs
          la=3 lb=3:      6 shell pairs

Checking whether 4 symmetric matrices of dimension 165 fit in memory
:Max Core in MB      =   4096.00
 MB in use           =      6.84
 MB left             =   4089.16
 MB needed           =      0.42
 Data fit in memory  = YES
Calculating RI/J V-Matrix + Cholesky decomp.... done (  0.0 sec)
Calculating Nuclear repulsion               ... done (  0.0 sec) ENN=    170.854875475527 Eh

Diagonalization of the overlap matrix:
Smallest eigenvalue                        ... 1.892e-03
Time for diagonalization                   ...    0.004 sec
Threshold for overlap eigenvalues          ... 1.000e-07
Number of eigenvalues below threshold      ... 0
Time for construction of square roots      ...    0.002 sec
Total time needed                          ...    0.007 sec

-------------------
DFT GRID GENERATION
-------------------

General Integration Accuracy     IntAcc      ... 4.959
Radial Grid Type                 RadialGrid  ... OptM3 with GC (2021)
Angular Grid (max. ang.)         AngularGrid ... 6 (Lebedev-590)
Angular grid pruning method      GridPruning ... 4 (adaptive)
Weight generation scheme         WeightScheme... mBecke (2022)
Basis function cutoff            BFCut       ... 1.0000e-11
Integration weight cutoff        WCut        ... 1.0000e-14
Partially contracted basis set               ... off
Rotationally invariant grid construction     ... off
Angular grids for H and He will be reduced by one unit

Total number of grid points                  ...   128072
Total number of batches                      ...     2006
Average number of points per batch           ...       63
Average number of grid points per atom       ...    10673
Grids setup in   1.3 sec
Initializing property integral containers    ... done (  0.0 sec)

SHARK setup successfully completed in   1.4 seconds

Maximum memory used throughout the entire STARTUP-calculation: 28.5 MB


           ************************************************************
           *        Program running with 24 parallel MPI-processes    *
           *              working on a common directory               *
           ************************************************************
Occupation numbers will be reassigned to an Aufbau configuration
             **** ENERGY FILE WAS UPDATED (run.en.tmp) ****
Finished Guess after   0.7 sec
Maximum memory used throughout the entire GUESS-calculation: 10.7 MB


           ************************************************************
           *        Program running with 24 parallel MPI-processes    *
           *              working on a common directory               *
           ************************************************************
----------------------------------------D-I-I-S--------------------------------------------
Iteration    Energy (Eh)           Delta-E    RMSDP     MaxDP     DIISErr   Damp  Time(sec)
-------------------------------------------------------------------------------------------
               ***  Starting incremental Fock matrix formation  ***
                              *** Initializing SOSCF ***
---------------------------------------S-O-S-C-F--------------------------------------
Iteration    Energy (Eh)           Delta-E    RMSDP     MaxDP     MaxGrad    Time(sec)
[...]
      3      -0.024064   0.014917   0.009245   0.007302   0.000015   0.004454
      4       0.016488  -0.011337  -0.007387  -0.011370   0.000476  -0.005867
      5       0.009251   0.003521   0.011649   0.003159   0.020531  -0.004088
      6       0.204766  -0.470776  -0.736537  -0.059476  -0.066611  -0.010139
      7      -0.039401   0.065859   0.293329   0.355413   0.301488   0.075444
      8      -0.031469   0.086479   0.238956  -0.649456  -0.536805  -0.150081
      9       0.085071  -0.009030   0.007799   0.039498  -0.098026   0.028559
     10      -0.054143   0.018146  -0.013307  -0.039915  -0.057447   0.002680
     11      -0.064305   0.007611   0.024174  -0.003708  -0.026129  -0.004011
     12       0.853190  -0.221346   0.342630  -0.028563   0.056923  -0.025301
     13      -0.116638   0.099440  -0.155273   0.260737  -0.366651   0.213082
     14       0.138874  -0.057850   0.127097   0.444508  -0.616245   0.360576
     15       0.076958  -0.003904   0.001517  -0.034519   0.063921  -0.116571
     16       0.007933  -0.041281   0.000022   0.018315  -0.012881   0.012780
     17       0.121340   0.032027  -0.003145  -0.040095   0.009957   0.075344
     18       0.112429   0.207471  -0.086819   0.048126  -0.033475  -0.137728
     19       0.015843   0.026623  -0.013151  -0.399448   0.229369   0.846082
     20       0.363823   0.791928  -0.363993   0.000330   0.019146   0.000252
     21       0.023469  -0.054301  -0.045838   0.063654   0.083856  -0.013596
     22      -0.013746   0.025975   0.043200  -0.025290   0.061256  -0.026129
     23       0.044957  -0.043667  -0.004641  -0.001916  -0.022915   0.016545
     24      -0.007009   0.007956   0.013413  -0.003085  -0.002840   0.000019
     25      -0.009302  -0.014057   0.008430   0.000781  -0.009328  -0.018185
     26      -0.003155  -0.028283  -0.010246   0.013009   0.010049  -0.001106
     27       0.031311  -0.035248  -0.039629  -0.042367  -0.082017  -0.098367
     28       0.049904   0.050097  -0.020048   0.029020   0.021656   0.021920
     29       0.002641   0.122588   0.041741   0.048197  -0.021303  -0.067168
     30      -0.007808   0.003466   0.002836   0.001651   0.069948   0.093334
     31      -0.035260  -0.006903   0.042555   0.020399   0.015316   0.010398
     32       0.033325  -0.010606  -0.062567   0.037405   0.007559  -0.002391
     33       0.009674   0.021854  -0.002593  -0.022645  -0.027408   0.117582
     34      -0.049500   0.009376  -0.010904   0.013699  -0.025201   0.033196
     35      -0.030852   0.057674  -0.037780  -0.033956   0.026532  -0.011775
                 30         31         32         33         34         35    
      0       0.001134  -0.002689   0.001048  -0.002198   0.035240  -0.024669
      1       0.005237  -0.016027  -0.004475  -0.000224   0.001682  -0.003131
      2      -0.001238  -0.005291  -0.004030   0.000879  -0.014376   0.009792
      3       0.001409   0.002162  -0.000717  -0.017126  -0.018985  -0.026043
      4       0.002990   0.004467  -0.001140  -0.013058  -0.014617  -0.020659
      5       0.000278  -0.001061   0.019319  -0.000276  -0.000821   0.000107
      6       0.011293   0.001248   0.007707   0.006361  -0.006230  -0.003708
      7      -0.064522  -0.000412  -0.045204  -0.018456  -0.002480  -0.003835
      8       0.113747  -0.006857   0.084246   0.030451   0.000754   0.001035
      9      -0.093781   0.023672  -0.470765   0.230337   0.291066   0.355372
     10      -0.074143   0.020539  -0.369609   0.181566   0.229854   0.277306
     11      -0.057528   0.013987  -0.282372   0.147475   0.181732   0.217957
     12       0.000573   0.011288  -0.005003  -0.004550   0.005746  -0.004985
     13       0.016433  -0.077122   0.047382  -0.011108  -0.020635  -0.003785
     14       0.035361  -0.125036   0.084223  -0.012852  -0.034753  -0.001261
     15       0.057650  -0.520168  -0.130253   0.008864  -0.502759   0.299648
     16      -0.022488   0.213380   0.053409  -0.003920   0.214549  -0.126290
     17      -0.036665   0.312341   0.077124  -0.006473   0.307961  -0.180630
     18       0.018736   0.025365   0.001231   0.010467   0.004855  -0.006631
     19      -0.123290  -0.165995  -0.005864  -0.026005   0.001237   0.007673
     20       0.001085  -0.001685   0.001601   0.001496  -0.002031   0.001071
     21       0.028021  -0.119353   0.489335   0.227164   0.217615   0.344779
     22       0.023987  -0.097788   0.402229   0.189270   0.179092   0.282500
     23      -0.016783   0.075621  -0.306037  -0.149297  -0.144619  -0.220272
     24      -0.007767  -0.001382   0.000639   0.038193  -0.010209  -0.018882
     25      -0.016007   0.000333   0.003186  -0.005767   0.001165   0.000814
     26       0.005082   0.002379  -0.002951   0.012803  -0.003386  -0.005560
     27      -0.470300  -0.071412   0.066402  -0.536582   0.127251   0.204157
     28       0.288298   0.045258  -0.040392   0.339060  -0.080198  -0.127663
     29      -0.258981  -0.037261   0.035893  -0.302221   0.071503   0.113067
     30       0.702154   0.103096  -0.068623  -0.498315   0.150412   0.306138
     31       0.227170   0.032394  -0.024432  -0.169601   0.051023   0.101940
     32       0.084785   0.013266  -0.006129  -0.053800   0.018380   0.035402
     33      -0.114505   0.597344   0.084022   0.051161  -0.449781   0.368110
     34      -0.063196   0.330286   0.047475   0.029114  -0.257388   0.207176
     35       0.024654  -0.138027  -0.018791  -0.013624   0.098489  -0.082504


-----------
IR SPECTRUM
-----------

 Mode   freq       eps      Int      T**2         TX        TY        TZ
       cm**-1   L/(mol*cm) km/mol    a.u.
----------------------------------------------------------------------------
  7:    131.36   0.000271    1.37  0.000645  ( 0.010071 -0.000996  0.023289)
  8:    150.22   0.000035    0.17  0.000072  (-0.001307 -0.006635  0.005105)
  9:    223.50   0.000564    2.85  0.000787  (-0.001063 -0.001971 -0.027973)
 10:    298.28   0.001925    9.73  0.002014  ( 0.036171 -0.025684  0.006778)
 11:    323.39   0.000133    0.67  0.000129  (-0.006336  0.001586 -0.009270)
 12:    401.54   0.001045    5.28  0.000812  (-0.019586  0.020706 -0.000306)
 13:    417.10   0.000093    0.47  0.000070  (-0.000980 -0.001865  0.008076)
 14:    431.25   0.001727    8.73  0.001250  ( 0.000663 -0.004884 -0.035010)
 15:    478.94   0.000376    1.90  0.000245  (-0.015002  0.000752 -0.004411)
 16:    498.05   0.009459   47.80  0.005927  ( 0.066939 -0.038000  0.001452)
 17:    562.03   0.020682  104.52  0.011483  (-0.015466 -0.011006 -0.105466)
 18:    673.03   0.125082  632.11  0.057997  ( 0.006323  0.224719 -0.086361)
 19:    674.06   0.104758  529.40  0.048499  (-0.007418  0.094326  0.198864)
 20:    710.88   0.002180   11.02  0.000957  (-0.020213  0.007781  0.022088)
 21:    718.98   0.023409  118.30  0.010160  (-0.074793  0.059115  0.032740)
 22:    732.79   0.029599  149.58  0.012605  ( 0.015688  0.101244 -0.045918)
 23:    746.74   0.022392  113.16  0.009358  ( 0.036341  0.022804  0.086701)
 24:   1044.05   0.034761  175.67  0.010390  (-0.085542  0.022996 -0.050435)
 25:   1066.26   0.029174  147.43  0.008538  ( 0.035119 -0.024804 -0.081791)
 26:   1109.65   0.005079   25.67  0.001428  ( 0.035205 -0.013428 -0.002932)
 27:   1693.15   0.009765   49.35  0.001800  ( 0.005566 -0.029764  0.029712)
 28:   1748.81   0.169437  856.26  0.030235  ( 0.005594 -0.023592  0.172183)
 29:   1768.60   0.184740  933.60  0.032597  ( 0.024861 -0.175521 -0.034219)
 30:   1898.35   0.001229    6.21  0.000202  (-0.006475 -0.010291  0.007365)
 31:   1900.84   0.001556    7.86  0.000255  (-0.001945 -0.014766 -0.005796)
 32:   1901.62   0.002909   14.70  0.000477  ( 0.001460 -0.004942  0.021234)
 33:   1913.72   0.012184   61.57  0.001987  ( 0.027499 -0.028296  0.020737)
 34:   1915.08   0.007123   36.00  0.001161  ( 0.009224 -0.017499 -0.027737)
 35:   1922.22   0.073051  369.17  0.011859  (-0.103097 -0.034479  0.006454)

* The epsilon (eps) is given for a Dirac delta lineshape.
** The dipole moment derivative (T) already includes vibrational overlap.

The first frequency considered to be a vibration is 7
The total number of vibrations considered is 29


--------------------------
THERMOCHEMISTRY AT 298.15K
--------------------------

Temperature         ...   298.15 K
Pressure            ...     1.00 atm
Total Mass          ...    90.02 AMU
Quasi RRHO          ...     True
Cut-Off Frequency   ...     1.00 cm^-1

Throughout the following assumptions are being made:
  (1) The electronic state is orbitally nondegenerate
  (2) There are no thermally accessible electronically excited states
  (3) Hindered rotations indicated by low frequency modes are not
      treated as such but are treated as vibrations and this may
      cause some error
  (4) All equations used are the standard statistical mechanics
      equations for an ideal gas
  (5) All vibrations are strictly harmonic

freq.     131.36  E(vib)   ...       0.42 
freq.     150.22  E(vib)   ...       0.40 
freq.     223.50  E(vib)   ...       0.33 
freq.     298.28  E(vib)   ...       0.27 
freq.     323.39  E(vib)   ...       0.25 
freq.     401.54  E(vib)   ...       0.19 
freq.     417.10  E(vib)   ...       0.18 
freq.     431.25  E(vib)   ...       0.18 
freq.     478.94  E(vib)   ...       0.15 
freq.     498.05  E(vib)   ...       0.14 
freq.     562.03  E(vib)   ...       0.11 
freq.     673.03  E(vib)   ...       0.08 
freq.     674.06  E(vib)   ...       0.08 
freq.     710.88  E(vib)   ...       0.07 
freq.     718.98  E(vib)   ...       0.07 
freq.     732.79  E(vib)   ...       0.06 
freq.     746.74  E(vib)   ...       0.06 
freq.    1044.05  E(vib)   ...       0.02 
freq.    1066.26  E(vib)   ...       0.02 
freq.    1109.65  E(vib)   ...       0.02 
freq.    1693.15  E(vib)   ...       0.00 
freq.    1748.81  E(vib)   ...       0.00 
freq.    1768.60  E(vib)   ...       0.00 
freq.    1898.35  E(vib)   ...       0.00 
freq.    1900.84  E(vib)   ...       0.00 
freq.    1901.62  E(vib)   ...       0.00 
freq.    1913.72  E(vib)   ...       0.00 
freq.    1915.08  E(vib)   ...       0.00 
freq.    1922.22  E(vib)   ...       0.00 

------------
INNER ENERGY
------------

The inner energy is: U= E(el) + E(ZPE) + E(vib) + E(rot) + E(trans)
    E(el)   - is the total energy from the electronic structure calculation
              = E(kin-el) + E(nuc-el) + E(el-el) + E(nuc-nuc)
    E(ZPE)  - the the zero temperature vibrational energy from the frequency calculation
    E(vib)  - the the finite temperature correction to E(ZPE) due to population
              of excited vibrational states
    E(rot)  - is the rotational thermal energy
    E(trans)- is the translational thermal energy

Summary of contributions to the inner energy U:
Electronic energy                ...   -732.25948142 Eh
Zero point energy                ...      0.06391279 Eh      40.11 kcal/mol
Thermal vibrational correction   ...      0.00493810 Eh       3.10 kcal/mol
Thermal rotational correction    ...      0.00141627 Eh       0.89 kcal/mol
Thermal translational correction ...      0.00141627 Eh       0.89 kcal/mol
-----------------------------------------------------------------------
Total thermal energy                   -732.18779799 Eh


Summary of corrections to the electronic energy:
(perhaps to be used in another calculation)
Total thermal correction                  0.00777064 Eh       4.88 kcal/mol
Non-thermal (ZPE) correction              0.06391279 Eh      40.11 kcal/mol
-----------------------------------------------------------------------
Total correction                          0.07168343 Eh      44.98 kcal/mol


--------
ENTHALPY
--------

The enthalpy is H = U + kB*T
                kB is Boltzmann's constant
Total thermal energy              ...   -732.18779799 Eh 
Thermal Enthalpy correction       ...      0.00094421 Eh       0.59 kcal/mol
-----------------------------------------------------------------------
Total Enthalpy                    ...   -732.18685378 Eh


Note: Only C1 symmetry has been detected, increase convergence thresholds 
      if your molecule has a higher symmetry. Symmetry factor of 1.0 is   
      used for the rotational entropy correction. 
 

Note: Rotational entropy computed according to Herzberg 
Infrared and Raman Spectra, Chapter V,1, Van Nostrand Reinhold, 1945 
Point Group:  C1, Symmetry Number:   1  
Rotational constants in cm-1:     0.106682     0.103564     0.056539 

Vibrational entropy computed according to the QRRHO of S. Grimme
Chem.Eur.J. 2012 18 9955 using a reference frequency of 100.0 cm-1


-------
ENTROPY
-------

The entropy contributions are T*S = T*(S(el)+S(vib)+S(rot)+S(trans))
     S(el)   - electronic entropy
     S(vib)  - vibrational entropy
     S(rot)  - rotational entropy
     S(trans)- translational entropy
The entropies will be listed as multiplied by the temperature to get
units of energy

Electronic entropy                ...      0.00000000 Eh      0.00 kcal/mol
Vibrational entropy               ...      0.00796842 Eh      5.00 kcal/mol
Rotational entropy                ...      0.01299403 Eh      8.15 kcal/mol
Translational entropy             ...      0.01872231 Eh     11.75 kcal/mol
-----------------------------------------------------------------------
Final entropy term                ...      0.03968476 Eh     24.90 kcal/mol

In case the symmetry of your molecule has not been determined correctly
or in case you have a reason to use a different symmetry number we print 
out the resulting rotational entropy values for sn=1,12:

 non-linear molecules -----------------------------------
|  sn= 1 | S(rot)=       0.01299403 Eh      8.15 kcal/mol|
|  sn= 2 | S(rot)=       0.01233958 Eh      7.74 kcal/mol|
|  sn= 3 | S(rot)=       0.01195674 Eh      7.50 kcal/mol|
|  sn= 4 | S(rot)=       0.01168512 Eh      7.33 kcal/mol|
|  sn= 5 | S(rot)=       0.01147443 Eh      7.20 kcal/mol|
|  sn= 6 | S(rot)=       0.01130229 Eh      7.09 kcal/mol|
|  sn= 7 | S(rot)=       0.01115674 Eh      7.00 kcal/mol|
|  sn= 8 | S(rot)=       0.01103066 Eh      6.92 kcal/mol|
|  sn= 9 | S(rot)=       0.01091945 Eh      6.85 kcal/mol|
|  sn=10 | S(rot)=       0.01081997 Eh      6.79 kcal/mol|
|  sn=11 | S(rot)=       0.01072998 Eh      6.73 kcal/mol|
|  sn=12 | S(rot)=       0.01064783 Eh      6.68 kcal/mol|
 linear molecules ---------------------------------------
|  Dinfh | S(rot)=       0.00803827 Eh      5.04 kcal/mol|
|  Cinfv | S(rot)=       0.00869273 Eh      5.45 kcal/mol|
 --------------------------------------------------------


-------------------
GIBBS FREE ENERGY
-------------------

The Gibbs free energy is G = H - T*S

Total enthalpy                    ...   -732.18685378 Eh 
Total entropy correction          ...     -0.03968476 Eh    -24.90 kcal/mol
-----------------------------------------------------------------------
Final Gibbs free energy         ...   -732.22653853 Eh

For completeness - the Gibbs free energy minus the electronic energy
G-E(el)                           ...      0.03294289 Eh     20.67 kcal/mol


Maximum memory used throughout the entire PROP-calculation: 29.5 MB

--------------------------------
SUGGESTED CITATIONS FOR THIS RUN
--------------------------------

Below you find a list of papers that are relevant to this ORCA run
We neither can nor want to force you to cite these papers, but we appreciate if you do
You receive ORCA, which is the product of decades of hard work by many enthusiastic individuals, for free
The only thing we kindly ask in return is that you cite our papers,
We deeply appreciate it, if you show your appreciation for ORCA by not just citing the generic ORCA reference.

Please note that relegating all ORCA citations to the supporting information does *not* help us.
SI sections are not indexed - citations you put there will not count into any citation statistics
But we need these citations in order to attract the funding resources that allow us to do what we are doing

Therefore, if you are a happy ORCA user, please consider citing a few of the papers listed below in the main body of your paper

In addition to the list printed below, the program has created the file run.bibtex that contains the list in bibtex format
You can import this file easily into all common literature databanks and citation aid programs


List of essential papers. We consider these as the minimum necessary citations

  1. Neese, F.
     Software update: the ORCA program system, version 6.0
     WIRES Comput. Molec. Sci. 2025 15(1), e70019
     doi.org/10.1002/wcms.7019

List of papers to cite with high priority. The work reported in these papers was absolutely
necessary for this run to complete.
Our perspective: the developers of density functionals and basis sets usually get cited in chemistry papers
Good! But without the algorithms to do something with them, the functionals or basis sets would not do anything.
Hence, in our opinion, the algorithm design and method developments papers are equally worthy of getting cited

  1. Neese, F.
     An improvement of the resolution of the identity approximation for the formation of the Coulomb matrix
     J. Comp. Chem. 2003 24(14), 1740-1747
     doi.org/10.1002/jcc.10318
  2. Grimme, S.; Antony, J.; Ehrlich, S.; Krieg, H.
     A consistent and accurate ab initio parametrization of density functional dispersion correction (DFT-D) for the 94 elements H-Pu
     J. Chem. Phys. 2010 132 , 154104
     doi.org/10.1063/1.3382344
  3. Grimme, S.; Ehrlich, S.; Goerigk, L.
     Effect of the damping function in dispersion corrected density functional theory
     J. Comput. Chem. 2011 32(7), 1456-1465
     doi.org/10.1002/jcc.21759
  4. Bykov, D.; Petrenko, T.; Izsak, R.; Kossmann, S.; Becker, U.; Valeev, E.; Neese, F.
     Efficient implementation of the analytic second derivatives of Hartree-Fock and hybrid DFT energies: a detailed analysis of different approximations
     Molec. Phys. 2015 113 , 1961-1977
     doi.org/10.1080/00268976.2015.1025114
  5. Neese, F.
     The SHARK Integral Generation and Digestion System
     J. Comp. Chem. 2022 44(3), 381
     doi.org/10.1002/jcc.26942

List of suggested additional citations. These are papers that are important in the 'surrounding' of 
of this run, or papers that preceded the highly important papers. If you like your results we are grateful for a citation.

  1. Neese, F.
     The ORCA program system
     WIRES Comput. Molec. Sci. 2012 2(1), 73-78
     doi.org/10.1002/wcms.81
  2. Neese, F.
     Software update: the ORCA program system, version 4.0
     WIRES Comput. Molec. Sci. 2018 8(1), 1-6
     doi.org/10.1002/wcms.1327
  3. Neese, F.; Wennmohs, F.; Becker, U.; Riplinger, C.
     The ORCA quantum chemistry program package
     J. Chem. Phys. 2020 152(22), 224108
     doi.org/10.1063/5.0004608
  4. Neese, F.
     Software update: The ORCA program system—Version 5.0
     WIRES Comput. Molec. Sci. 2022 12(1), e1606
     doi.org/10.1002/wcms.1606

List of optional additional citations

  1. Neese, F.
     Approximate second-order SCF convergence for spin unrestricted wavefunctions
     Chem. Phys. Lett. 2000 325(1-3), 93-98
     doi.org/10.1016/s0009-2614(00)00662-x

Timings for individual modules:

Sum of individual times          ...      200.082 sec (=   3.335 min)
Startup calculation              ...       57.154 sec (=   0.953 min)  28.6 %
SCF iterations                   ...       67.590 sec (=   1.127 min)  33.8 %
Property integrals               ...       29.464 sec (=   0.491 min)  14.7 %
SCF Response                     ...        4.532 sec (=   0.076 min)   2.3 %
Property calculations            ...        4.965 sec (=   0.083 min)   2.5 %
SCF Gradient evaluation          ...       36.110 sec (=   0.602 min)  18.0 %
Geometry relaxation              ...        0.268 sec (=   0.004 min)   0.1 %
                             ****ORCA TERMINATED NORMALLY****
TOTAL RUN TIME: 0 days 0 hours 3 minutes 44 seconds 758 msec
