
                                 *****************
                                 * O   R   C   A *
                                 *****************

                                            #,                                       
                                            ###                                      
                                            ####                                     
                                            #####                                    
                                            ######                                   
                                           ########,                                 
                                     ,,################,,,,,                         
                               ,,#################################,,                 
                          ,,##########################################,,             
                       ,#########################################, ''#####,          
                    ,#############################################,,   '####,        
                  ,##################################################,,,,####,       
                ,###########''''           ''''###############################       
              ,#####''   ,,,,##########,,,,          '''####'''          '####       
            ,##' ,,,,###########################,,,                        '##       
           ' ,,###''''                  '''############,,,                           
         ,,##''                                '''############,,,,        ,,,,,,###''
      ,#''                                            '''#######################'''  
     '                                                          ''''####''''         
             ,#######,   #######,   ,#######,      ##                                
            ,#'     '#,  ##    ##  ,#'     '#,    #''#        ######   ,####,        
            ##       ##  ##   ,#'  ##            #'  '#       #        #'  '#        
            ##       ##  #######   ##           ,######,      #####,   #    #        
            '#,     ,#'  ##    ##  '#,     ,#' ,#      #,         ##   #,  ,#        
             '#######'   ##     ##  '#######'  #'      '#     #####' # '####'        



                  #######################################################
                  #                        -***-                        #
                  #          Department of theory and spectroscopy      #
                  #    Directorship and core code : Frank Neese         #
                  #        Max Planck Institute fuer Kohlenforschung    #
                  #                Kaiser Wilhelm Platz 1               #
                  #                 D-45470 Muelheim/Ruhr               #
                  #                      Germany                        #
                  #                                                     #
                  #                  All rights reserved                #
                  #                        -***-                        #
                  #######################################################


                         Program Version 5.0.4 -  RELEASE  -


 With contributions from (in alphabetic order):
   Daniel Aravena         : Magnetic Suceptibility
   Michael Atanasov       : Ab Initio Ligand Field Theory (pilot matlab implementation)
   Alexander A. Auer      : GIAO ZORA, VPT2 properties, NMR spectrum
   Ute Becker             : Parallelization
   Giovanni Bistoni       : ED, misc. LED, open-shell LED, HFLD
   Martin Brehm           : Molecular dynamics
   Dmytro Bykov           : SCF Hessian
   Vijay G. Chilkuri      : MRCI spin determinant printing, contributions to CSF-ICE
   Dipayan Datta          : RHF DLPNO-CCSD density
   Achintya Kumar Dutta   : EOM-CC, STEOM-CC
   Dmitry Ganyushin       : Spin-Orbit,Spin-Spin,Magnetic field MRCI
   Miquel Garcia          : C-PCM and meta-GGA Hessian, CC/C-PCM, Gaussian charge scheme
   Yang Guo               : DLPNO-NEVPT2, F12-NEVPT2, CIM, IAO-localization
   Andreas Hansen         : Spin unrestricted coupled pair/coupled cluster methods
   Benjamin Helmich-Paris : MC-RPA, TRAH-SCF, COSX integrals
   Lee Huntington         : MR-EOM, pCC
   Robert Izsak           : Overlap fitted RIJCOSX, COSX-SCS-MP3, EOM
   Marcus Kettner         : VPT2
   Christian Kollmar      : KDIIS, OOCD, Brueckner-CCSD(T), CCSD density, CASPT2, CASPT2-K
   Simone Kossmann        : Meta GGA functionals, TD-DFT gradient, OOMP2, MP2 Hessian
   Martin Krupicka        : Initial AUTO-CI
   Lucas Lang             : DCDCAS
   Marvin Lechner         : AUTO-CI (C++ implementation), FIC-MRCC
   Dagmar Lenk            : GEPOL surface, SMD
   Dimitrios Liakos       : Extrapolation schemes; Compound Job, initial MDCI parallelization
   Dimitrios Manganas     : Further ROCIS development; embedding schemes
   Dimitrios Pantazis     : SARC Basis sets
   Anastasios Papadopoulos: AUTO-CI, single reference methods and gradients
   Taras Petrenko         : DFT Hessian,TD-DFT gradient, ASA, ECA, R-Raman, ABS, FL, XAS/XES, NRVS
   Peter Pinski           : DLPNO-MP2, DLPNO-MP2 Gradient
   Christoph Reimann      : Effective Core Potentials
   Marius Retegan         : Local ZFS, SOC
   Christoph Riplinger    : Optimizer, TS searches, QM/MM, DLPNO-CCSD(T), (RO)-DLPNO pert. Triples
   Tobias Risthaus        : Range-separated hybrids, TD-DFT gradient, RPA, STAB
   Michael Roemelt        : Original ROCIS implementation
   Masaaki Saitow         : Open-shell DLPNO-CCSD energy and density
   Barbara Sandhoefer     : DKH picture change effects
   Avijit Sen             : IP-ROCIS
   Kantharuban Sivalingam : CASSCF convergence, NEVPT2, FIC-MRCI
   Bernardo de Souza      : ESD, SOC TD-DFT
   Georgi Stoychev        : AutoAux, RI-MP2 NMR, DLPNO-MP2 response
   Willem Van den Heuvel  : Paramagnetic NMR
   Boris Wezisla          : Elementary symmetry handling
   Frank Wennmohs         : Technical directorship


 We gratefully acknowledge several colleagues who have allowed us to
 interface, adapt or use parts of their codes:
   Stefan Grimme, W. Hujo, H. Kruse, P. Pracht,  : VdW corrections, initial TS optimization,
                  C. Bannwarth, S. Ehlert          DFT functionals, gCP, sTDA/sTD-DF
   Ed Valeev, F. Pavosevic, A. Kumar             : LibInt (2-el integral package), F12 methods
   Garnet Chan, S. Sharma, J. Yang, R. Olivares  : DMRG
   Ulf Ekstrom                                   : XCFun DFT Library
   Mihaly Kallay                                 : mrcc  (arbitrary order and MRCC methods)
   Jiri Pittner, Ondrej Demel                    : Mk-CCSD
   Frank Weinhold                                : gennbo (NPA and NBO analysis)
   Christopher J. Cramer and Donald G. Truhlar   : smd solvation model
   Lars Goerigk                                  : TD-DFT with DH, B97 family of functionals
   V. Asgeirsson, H. Jonsson                     : NEB implementation
   FAccTs GmbH                                   : IRC, NEB, NEB-TS, DLPNO-Multilevel, CI-OPT
                                                   MM, QMMM, 2- and 3-layer-ONIOM, Crystal-QMMM,
                                                   LR-CPCM, SF, NACMEs, symmetry and pop. for TD-DFT,
                                                   nearIR, NL-DFT gradient (VV10), updates on ESD,
                                                   ML-optimized integration grids
   S Lehtola, MJT Oliveira, MAL Marques          : LibXC Library
   Liviu Ungur et al                             : ANISO software


 Your calculation uses the libint2 library for the computation of 2-el integrals
 For citations please refer to: http://libint.valeyev.net

 Your ORCA version has been built with support for libXC version: 5.1.0
 For citations please refer to: https://tddft.org/programs/libxc/

 This ORCA versions uses:
   CBLAS   interface :  Fast vector & matrix operations
   LAPACKE interface :  Fast linear algebra routines
   SCALAPACK package :  Parallel linear algebra routines
   Shared memory     :  Shared parallel matrices
   BLAS/LAPACK       :  OpenBLAS 0.3.15  USE64BITINT DYNAMIC_ARCH NO_AFFINITY Barcelona SINGLE_THREADED
        Core in use  :  Barcelona
   Copyright (c) 2011-2014, The OpenBLAS Project




***************************************
The coordinates will be read from file: start.xyz
***************************************


Your calculation utilizes the atom-pairwise dispersion correction
with the Becke-Johnson damping scheme (D3BJ)
Cite in your paper:
S.Grimme, S.Ehrlich, L.Goerigk, J Comput Chem, (2011), 32, 1456–1465 
S.Grimme, J.Antony, S.Ehrlich and H.Krieg, J.Chem.Phys., 132, (2010), 154104 
   

================================================================================

----- Orbital basis set information -----
Your calculation utilizes the basis: pc-3
   H, C-F              : F. Jensen, J. Chem. Phys. 115, 9113 (2001).
                         F. Jensen, J. Chem. Phys. 116, 7372 (2002).
                         F. Jensen, J. Chem. Phys. 117, 9234 (2002).
   Si-Cl               : F. Jensen, T. Helgaker, J. Chem. Phys. 121, 3463 (2004).
   He-B, Ne-Mg, Al, Ar : F. Jensen, J. Phys. Chem. A 111, 11198 (2007).
   K, Ca, Ga-Kr        : F. Jensen, J. Chem. Phys. 136, 094110 (2012).
   Sc-Zn               : F. Jensen, J. Chem. Phys. 138, 014107 (2013).

----- AuxJ basis set information -----
Your calculation utilizes the AutoAux generation procedure.
  G. L. Stoychev, A. A. Auer, F. Neese, J. Chem. Theory Comput. 13, 554 (2017)

----- AuxC basis set information -----
Your calculation utilizes the AutoAux generation procedure.
  G. L. Stoychev, A. A. Auer, F. Neese, J. Chem. Theory Comput. 13, 554 (2017)

----- AuxJK basis set information -----
Your calculation utilizes the AutoAux generation procedure.
  G. L. Stoychev, A. A. Auer, F. Neese, J. Chem. Theory Comput. 13, 554 (2017)

================================================================================
                                        WARNINGS
                       Please study these warnings very carefully!
================================================================================


WARNING: Geometry Optimization
  ===> : Switching off AutoStart
         For restart on a previous wavefunction, please use MOREAD

INFO   : the flag for use of the SHARK integral package has been found!

================================================================================
                                       INPUT FILE
================================================================================
NAME = run.inp
|  1> # Geometry optimization for (AlH3)n cluster
|  2> 
|  3> ! PBE 	# functional used for the MOF calculations later (non-expensive)
|  4> ! RKS	# closed shell for AlH3
|  5> ! D3BJ  # better geometries at low cost
|  6> ! pc-3 	# proven basiset from earlier work
|  7> ! Freq 	# Frequency analysis to check the stabiltity of the structures
|  8> 
|  9> ! NoPop # population analysis not necessary	
| 10> 
| 11> ! RI 		# speed up calculation 
| 12> ! AutoAux # no auxiliary basis set for pc implemented
| 13> ! DEFGRID3 # dense integration grid in space
| 14> ! TightSCF # 
| 15> ! TightOpt # thight convergence criteria for geometry optimizations
| 16> 
| 17> ! SmallPrint
| 18> 
| 19> 
| 20> * xyzFile 0 1 start.xyz # only maingroup elements H and Al so there should be no net spin
| 21> 
| 22>                          ****END OF INPUT****
================================================================================

                       *****************************
                       * Geometry Optimization Run *
                       *****************************

Geometry optimization settings:
Update method            Update   .... BFGS
Choice of coordinates    CoordSys .... Z-matrix Internals
Initial Hessian          InHess   .... Almoef's Model

Convergence Tolerances:
Energy Change            TolE     ....  1.0000e-06 Eh
Max. Gradient            TolMAXG  ....  1.0000e-04 Eh/bohr
RMS Gradient             TolRMSG  ....  3.0000e-05 Eh/bohr
Max. Displacement        TolMAXD  ....  1.0000e-03 bohr
RMS Displacement         TolRMSD  ....  6.0000e-04 bohr
Strict Convergence                ....  False
------------------------------------------------------------------------------
                        ORCA OPTIMIZATION COORDINATE SETUP
------------------------------------------------------------------------------

The optimization will be done in new redundant internal coordinates
Making redundant internal coordinates   ...  (new redundants) done
Evaluating the initial hessian          ...  (Almloef) done
Evaluating the coordinates              ...  done
Calculating the B-matrix                .... done
Calculating the G-matrix                .... done
Diagonalizing the G-matrix              .... done
The first mode is                       ....   39
The number of degrees of freedom        ....   18

    -----------------------------------------------------------------
                    Redundant Internal Coordinates


    -----------------------------------------------------------------
         Definition                    Initial Value    Approx d2E/dq
    -----------------------------------------------------------------
      1. B(H   1,Al  0)                  1.6001         0.387384   
      2. B(H   2,Al  0)                  1.6004         0.386988   
      3. B(H   3,Al  0)                  1.7078         0.260788   
      4. B(Al  4,H   3)                  1.7080         0.260626   
      5. B(Al  4,Al  0)                  2.0681         2.541368   
      6. B(H   5,Al  4)                  1.6001         0.387367   
      7. B(H   6,Al  4)                  1.6007         0.386529   
      8. B(H   7,Al  4)                  1.7080         0.260628   
      9. B(H   7,Al  0)                  1.7079         0.260767   
     10. A(H   2,Al  0,H   7)          110.5559         0.355019   
     11. A(H   3,Al  0,Al  4)           52.7434         0.585838   
     12. A(H   2,Al  0,Al  4)          124.9462         0.632264   
     13. A(H   3,Al  0,H   7)          105.4831         0.332286   
     14. A(H   1,Al  0,H   7)          110.5702         0.355081   
     15. A(H   2,Al  0,H   3)          110.5524         0.355024   
     16. A(H   1,Al  0,Al  4)          125.9758         0.632391   
     17. A(H   1,Al  0,H   3)          110.5714         0.355086   
     18. A(H   1,Al  0,H   2)          109.0779         0.379950   
     19. A(Al  4,Al  0,H   7)           52.7431         0.585829   
     20. A(Al  0,H   3,Al  4)           74.5208         0.332256   
     21. A(H   5,Al  4,H   6)          109.1029         0.379869   
     22. A(H   3,Al  4,H   6)          110.5370         0.354915   
     23. A(Al  0,Al  4,H   6)          124.9168         0.632119   
     24. A(H   5,Al  4,H   7)          110.5796         0.355046   
     25. A(H   3,Al  4,H   5)          110.5737         0.355046   
     26. A(H   3,Al  4,H   7)          105.4692         0.332222   
     27. A(Al  0,Al  4,H   7)           52.7367         0.585769   
     28. A(Al  0,Al  4,H   5)          125.9804         0.632385   
     29. A(H   6,Al  4,H   7)          110.5470         0.354916   
     30. A(Al  0,Al  4,H   3)           52.7359         0.585768   
     31. A(Al  0,H   7,Al  4)           74.5203         0.332252   
     32. D(Al  4,H   3,Al  0,H   1)    120.1899         0.004276   
     33. D(Al  4,H   3,Al  0,H   7)      0.6270         0.004276   
     34. D(Al  4,H   3,Al  0,H   2)   -118.9089         0.004276   
     35. D(H   6,Al  4,Al  0,H   2)      0.0050         0.008213   
     36. D(H   6,Al  4,Al  0,H   3)    -90.3721         0.008213   
     37. D(H   5,Al  4,Al  0,H   1)     -0.0056         0.008213   
     38. D(H   5,Al  4,Al  0,H   3)     89.6158         0.008213   
     39. D(H   5,Al  4,Al  0,H   2)    179.9930         0.008213   
     40. D(H   3,Al  4,Al  0,H   2)     90.3771         0.008213   
     41. D(H   6,Al  4,Al  0,H   1)   -179.9936         0.008213   
     42. D(H   3,Al  4,Al  0,H   1)    -89.6214         0.008213   
     43. D(H   3,Al  4,Al  0,H   7)   -179.2408         0.008213   
     44. D(H   6,Al  4,Al  0,H   7)     90.3870         0.008213   
     45. D(H   7,Al  4,Al  0,H   1)     89.6194         0.008213   
     46. D(H   7,Al  4,Al  0,H   2)    -90.3820         0.008213   
     47. D(H   7,Al  4,Al  0,H   3)    179.2408         0.008213   
     48. D(H   5,Al  4,H   3,Al  0)   -120.1941         0.004272   
     49. D(H   6,Al  4,H   3,Al  0)    118.8820         0.004272   
     50. D(H   7,Al  4,H   3,Al  0)     -0.6269         0.004272   
     51. D(H   5,Al  4,Al  0,H   7)    -89.6250         0.008213   
     52. D(Al  0,H   7,Al  4,H   6)   -118.8754         0.004272   
     53. D(Al  0,H   7,Al  4,H   5)    120.1902         0.004272   
     54. D(Al  0,H   7,Al  4,H   3)      0.6269         0.004272   
     55. D(Al  4,H   7,Al  0,H   3)     -0.6270         0.004275   
     56. D(Al  4,H   7,Al  0,H   2)    118.9066         0.004275   
     57. D(Al  4,H   7,Al  0,H   1)   -120.1907         0.004275   
    -----------------------------------------------------------------

Number of atoms                         .... 8
Number of degrees of freedom            .... 57

Time needed for optimization step       :     1.58 sec

         *************************************************************
         *                GEOMETRY OPTIMIZATION CYCLE   1            *
         *************************************************************
---------------------------------
CARTESIAN COORDINATES (ANGSTROEM)
---------------------------------
  Al    -0.000000    0.000000    0.000000
  H      0.519920    1.185960   -0.939980
  H     -0.526680   -1.201460   -0.916720
  H      1.248520   -0.537540    1.033900
  Al    -0.000000   -0.000000    2.068080
  H      0.520010    1.185850    3.008170
  H     -0.526870   -1.202180    2.984310
  H     -1.241300    0.554040    1.033920

----------------------------
CARTESIAN COORDINATES (A.U.)
----------------------------
  NO LB      ZA    FRAG     MASS         X           Y           Z
   0 Al   13.0000    0    26.982   -0.000000    0.000000    0.000000
   1 H     1.0000    0     1.008    0.982506    2.241140   -1.776305
   2 H     1.0000    0     1.008   -0.995281   -2.270430   -1.732350
   3 H     1.0000    0     1.008    2.359361   -1.015803    1.953788
   4 Al   13.0000    0    26.982   -0.000000   -0.000000    3.908105
   5 H     1.0000    0     1.008    0.982676    2.240932    5.684617
   6 H     1.0000    0     1.008   -0.995640   -2.271791    5.639529
   7 H     1.0000    0     1.008   -2.345717    1.046984    1.953826

--------------------------------
INTERNAL COORDINATES (ANGSTROEM)
--------------------------------
 Al     0   0   0     0.000000000000     0.00000000     0.00000000
 H      1   0   0     1.600118848211     0.00000000     0.00000000
 H      1   2   0     1.600397923143   109.07793673     0.00000000
 H      1   2   3     1.707835077518   110.57142907   121.77377581
 Al     4   1   2     1.708004600228    74.52076917   120.18989458
 H      5   4   1     1.600131191715   110.57372959   239.80585275
 H      5   4   1     1.600720513456   110.53701774   118.88201739
 H      1   2   3     1.707857306100   110.57015932   238.22265630

---------------------------
INTERNAL COORDINATES (A.U.)
---------------------------
 Al     0   0   0     0.000000000000     0.00000000     0.00000000
 H      1   0   0     3.023786404844     0.00000000     0.00000000
 H      1   2   0     3.024313780036   109.07793673     0.00000000
 H      1   2   3     3.227340578413   110.57142907   121.77377581
 Al     4   1   2     3.227660929909    74.52076917   120.18989458
 H      5   4   1     3.023809730687   110.57372959   239.80585275
 H      5   4   1     3.024923387382   110.53701774   118.88201739
 H      1   2   3     3.227382584346   110.57015932   238.22265630

---------------------
BASIS SET INFORMATION
---------------------
There are 2 groups of distinct atoms

 Group   1 Type Al  : 35s21p4d2f1g contracted to 6s5p4d2f1g pattern {121010111/99111/1111/11/1}
 Group   2 Type H   : 9s4p2d1f contracted to 5s4p2d1f pattern {51111/1111/11/1}

Atom   0Al   basis set group =>   1
Atom   1H    basis set group =>   2
Atom   2H    basis set group =>   2
Atom   3H    basis set group =>   2
Atom   4Al   basis set group =>   1
Atom   5H    basis set group =>   2
Atom   6H    basis set group =>   2
Atom   7H    basis set group =>   2
---------------------------------
AUXILIARY/J BASIS SET INFORMATION
---------------------------------
There are 2 groups of distinct atoms

 Group   1 Type Al  : 19s16p15d8f8g5h contracted to 19s16p15d8f8g5h pattern {1111111111111111111/1111111111111111/111111111111111/11111111/11111111/11111}
 Group   2 Type H   : 15s7p6d4f4g contracted to 15s7p6d4f4g pattern {111111111111111/1111111/111111/1111/1111}

Atom   0Al   basis set group =>   1
Atom   1H    basis set group =>   2
Atom   2H    basis set group =>   2
Atom   3H    basis set group =>   2
Atom   4Al   basis set group =>   1
Atom   5H    basis set group =>   2
Atom   6H    basis set group =>   2
Atom   7H    basis set group =>   2
---------------------------------
AUXILIARY/C BASIS SET INFORMATION
---------------------------------
There are 2 groups of distinct atoms

 Group   1 Type Al  : 19s16p15d8f8g5h contracted to 19s16p15d8f8g5h pattern {1111111111111111111/1111111111111111/111111111111111/11111111/11111111/11111}
 Group   2 Type H   : 15s7p6d4f4g contracted to 15s7p6d4f4g pattern {111111111111111/1111111/111111/1111/1111}

Atom   0Al   basis set group =>   1
Atom   1H    basis set group =>   2
Atom   2H    basis set group =>   2
Atom   3H    basis set group =>   2
Atom   4Al   basis set group =>   1
Atom   5H    basis set group =>   2
Atom   6H    basis set group =>   2
Atom   7H    basis set group =>   2
----------------------------------
AUXILIARY/JK BASIS SET INFORMATION
----------------------------------
There are 2 groups of distinct atoms

 Group   1 Type Al  : 19s16p15d8f8g5h contracted to 19s16p15d8f8g5h pattern {1111111111111111111/1111111111111111/111111111111111/11111111/11111111/11111}
 Group   2 Type H   : 15s7p6d4f4g contracted to 15s7p6d4f4g pattern {111111111111111/1111111/111111/1111/1111}

Atom   0Al   basis set group =>   1
Atom   1H    basis set group =>   2
Atom   2H    basis set group =>   2
Atom   3H    basis set group =>   2
Atom   4Al   basis set group =>   1
Atom   5H    basis set group =>   2
Atom   6H    basis set group =>   2
Atom   7H    basis set group =>   2
------------------------------------------------------------------------------
                           ORCA GTO INTEGRAL CALCULATION
                           -- RI-GTO INTEGRALS CHOSEN --
------------------------------------------------------------------------------
------------------------------------------------------------------------------
                   ___                                                        
                  /   \      - P O W E R E D   B Y -                         
                 /     \                                                     
                 |  |  |   _    _      __       _____    __    __             
                 |  |  |  | |  | |    /  \     |  _  \  |  |  /  |          
                  \  \/   | |  | |   /    \    | | | |  |  | /  /          
                 / \  \   | |__| |  /  /\  \   | |_| |  |  |/  /          
                |  |  |   |  __  | /  /__\  \  |    /   |      \           
                |  |  |   | |  | | |   __   |  |    \   |  |\   \          
                \     /   | |  | | |  |  |  |  | |\  \  |  | \   \       
                 \___/    |_|  |_| |__|  |__|  |_| \__\ |__|  \__/        
                                                                              
                      - O R C A' S   B I G   F R I E N D -                    
                                      &                                       
                       - I N T E G R A L  F E E D E R -                       
                                                                              
 v1 FN, 2020, v2 2021                                                         
------------------------------------------------------------------------------


Reading SHARK input file run.SHARKINP.tmp ... ok
----------------------
SHARK INTEGRAL PACKAGE
----------------------

Number of atoms                             ...      8
Number of basis functions                   ...    332
Number of shells                            ...    108
Maximum angular momentum                    ...      4
Integral batch strategy                     ... SHARK/LIBINT Hybrid
RI-J (if used) integral strategy            ... SPLIT-RIJ (Revised 2003 algorithm where possible)
Printlevel                                  ...      1
Contraction scheme used                     ... SEGMENTED contraction
Coulomb Range Separation                    ... NOT USED
Exchange Range Separation                   ... NOT USED
Finite Nucleus Model                        ... NOT USED
Auxiliary Coulomb fitting basis             ... AVAILABLE
   # of basis functions in Aux-J            ...   1430
   # of shells in Aux-J                     ...    358
   Maximum angular momentum in Aux-J        ...      5
Auxiliary J/K fitting basis                 ... AVAILABLE
   # of basis functions in Aux-JK           ...   1430
   # of shells in Aux-JK                    ...    358
   Maximum angular momentum in Aux-JK       ...      5
Auxiliary Correlation fitting basis         ... AVAILABLE
   # of basis functions in Aux-C            ...   1430
   # of shells in Aux-C                     ...    358
   Maximum angular momentum in Aux-C        ...      5
Auxiliary 'external' fitting basis          ... NOT available
Integral threshold                          ...     2.500000e-11
Primitive cut-off                           ...     2.500000e-12
Primitive pair pre-selection threshold      ...     2.500000e-12

Calculating pre-screening integrals         ... done (  0.6 sec) Dimension = 108
Organizing shell pair data                  ... done (  0.4 sec)
Shell pair information
Total number of shell pairs                 ...      5886
Shell pairs after pre-screening             ...      5494
Total number of primitive shell pairs       ...     25269
Primitive shell pairs kept                  ...     18228
          la=0 lb=0:    865 shell pairs
          la=1 lb=0:   1338 shell pairs
          la=1 lb=1:    538 shell pairs
          la=2 lb=0:    798 shell pairs
          la=2 lb=1:    614 shell pairs
          la=2 lb=2:    197 shell pairs
          la=3 lb=0:    396 shell pairs
          la=3 lb=1:    298 shell pairs
          la=3 lb=2:    184 shell pairs
          la=3 lb=3:     51 shell pairs
          la=4 lb=0:     84 shell pairs
          la=4 lb=1:     68 shell pairs
          la=4 lb=2:     40 shell pairs
          la=4 lb=3:     20 shell pairs
          la=4 lb=4:      3 shell pairs

Calculating one electron integrals          ... done (  0.1 sec)
Calculating RI/J V-Matrix + Cholesky decomp.... done (  0.6 sec)
Calculating RI/JK V-Matrix + Cholesky decomp... done (  0.3 sec)
Calculating RI/C V-Matrix + Cholesky decomp.... done (  0.3 sec)
Calculating Nuclear repulsion               ... done (  0.0 sec) ENN=     87.622081573824 Eh

SHARK setup successfully completed in   6.0 seconds

Maximum memory used throughout the entire GTOINT-calculation: 172.1 MB
-------------------------------------------------------------------------------
                                 ORCA SCF
-------------------------------------------------------------------------------

------------
SCF SETTINGS
------------
Hamiltonian:
 Density Functional     Method          .... DFT(GTOs)
 Exchange Functional    Exchange        .... PBE
   PBE kappa parameter   XKappa         ....  0.804000
   PBE mue parameter    XMuePBE         ....  0.219520
 Correlation Functional Correlation     .... PBE
   PBE beta parameter  CBetaPBE         ....  0.066725
 LDA part of GGA corr.  LDAOpt          .... PW91-LDA
 Gradients option       PostSCFGGA      .... off
   Density functional embedding theory  .... OFF
   NL short-range parameter             ....  6.400000
 RI-approximation to the Coulomb term is turned on
   Number of AuxJ basis functions       .... 1430


General Settings:
 Integral files         IntName         .... run
 Hartree-Fock type      HFTyp           .... RHF
 Total Charge           Charge          ....    0
 Multiplicity           Mult            ....    1
 Number of Electrons    NEL             ....   32
 Basis Dimension        Dim             ....  332
 Nuclear Repulsion      ENuc            ....     87.6220815738 Eh

Convergence Acceleration:
 DIIS                   CNVDIIS         .... on
   Start iteration      DIISMaxIt       ....    12
   Startup error        DIISStart       ....  0.200000
   # of expansion vecs  DIISMaxEq       ....     5
   Bias factor          DIISBfac        ....   1.050
   Max. coefficient     DIISMaxC        ....  10.000
 Trust-Rad. Augm. Hess. CNVTRAH         .... auto
   Auto Start mean grad. ratio tolernc. ....  1.125000
   Auto Start start iteration           ....    20
   Auto Start num. interpolation iter.  ....    10
   Max. Number of Micro iterations      ....    16
   Max. Number of Macro iterations      .... Maxiter - #DIIS iter
   Number of Davidson start vectors     ....     2
   Converg. threshold I  (grad. norm)   ....   1.000e-05
   Converg. threshold II (energy diff.) ....   1.000e-08
   Grad. Scal. Fac. for Micro threshold ....   0.100
   Minimum threshold for Micro iter.    ....   0.010
   NR start threshold (gradient norm)   ....   0.001
   Initial trust radius                 ....   0.400
   Minimum AH scaling param. (alpha)    ....   1.000
   Maximum AH scaling param. (alpha)    .... 1000.000
   Orbital update algorithm             .... Taylor
   White noise on init. David. guess    .... on
   Maximum white noise                  ....   0.010
   Quad. conv. algorithm                .... NR
 SOSCF                  CNVSOSCF        .... on
   Start iteration      SOSCFMaxIt      ....   150
   Startup grad/error   SOSCFStart      ....  0.003300
 Level Shifting         CNVShift        .... on
   Level shift para.    LevelShift      ....    0.2500
   Turn off err/grad.   ShiftErr        ....    0.0010
 Zerner damping         CNVZerner       .... off
 Static damping         CNVDamp         .... on
   Fraction old density DampFac         ....    0.7000
   Max. Damping (<1)    DampMax         ....    0.9800
   Min. Damping (>=0)   DampMin         ....    0.0000
   Turn off err/grad.   DampErr         ....    0.1000
 Fernandez-Rico         CNVRico         .... off

SCF Procedure:
 Maximum # iterations   MaxIter         ....   125
 SCF integral mode      SCFMode         .... Direct
   Integral package                     .... SHARK and LIBINT hybrid scheme
 Reset frequency        DirectResetFreq ....    20
 Integral Threshold     Thresh          ....  2.500e-11 Eh
 Primitive CutOff       TCut            ....  2.500e-12 Eh

Convergence Tolerance:
 Convergence Check Mode ConvCheckMode   .... Total+1el-Energy
 Convergence forced     ConvForced      .... 0
 Energy Change          TolE            ....  1.000e-08 Eh
 1-El. energy change                    ....  1.000e-05 Eh
 Orbital Gradient       TolG            ....  1.000e-05
 Orbital Rotation angle TolX            ....  1.000e-05
 DIIS Error             TolErr          ....  5.000e-07


Diagonalization of the overlap matrix:
Smallest eigenvalue                        ... 1.765e-04
Time for diagonalization                   ...    0.236 sec
Threshold for overlap eigenvalues          ... 1.000e-08
Number of eigenvalues below threshold      ... 0
Time for construction of square roots      ...    0.048 sec
Total time needed                          ...    0.285 sec

Time for model grid setup =    0.528 sec

------------------------------
INITIAL GUESS: MODEL POTENTIAL
------------------------------
Loading Hartree-Fock densities                     ... done
Calculating cut-offs                               ... done
Initializing the effective Hamiltonian             ... done
Setting up the integral package (SHARK)            ... done
Starting the Coulomb interaction                   ... done (   1.0 sec)
Reading the grid                                   ... done
Mapping shells                                     ... done
Starting the XC term evaluation                    ... done (   0.7 sec)
  promolecular density results
     # of electrons  =     31.995708768
     EX              =    -37.843109096
     EC              =     -1.101035722
     EX+EC           =    -38.944144819
Transforming the Hamiltonian                       ... done (   0.0 sec)
Diagonalizing the Hamiltonian                      ... done (   0.0 sec)
Back transforming the eigenvectors                 ... done (   0.0 sec)
Now organizing SCF variables                       ... done
                      ------------------
                      INITIAL GUESS DONE (   2.4 sec)
                      ------------------
-------------------
DFT GRID GENERATION
-------------------

General Integration Accuracy     IntAcc      ... 4.959
Radial Grid Type                 RadialGrid  ... OptM3 with GC (2021)
Angular Grid (max. ang.)         AngularGrid ... 6 (Lebedev-590)
Angular grid pruning method      GridPruning ... 4 (adaptive)
Weight generation scheme         WeightScheme... Becke
Basis function cutoff            BFCut       ... 1.0000e-11
Integration weight cutoff        WCut        ... 1.0000e-14
Angular grids for H and He will be reduced by one unit
Partially contracted basis set               ... off
Rotationally invariant grid construction     ... off

Total number of grid points                  ...    91044
Total number of batches                      ...     1427
Average number of points per batch           ...       63
Average number of grid points per atom       ...    11380
Time for grid setup =    3.091 sec

--------------
SCF ITERATIONS
--------------
ITER       Energy         Delta-E        Max-DP      RMS-DP      [F,P]     Damp
               ***  Starting incremental Fock matrix formation  ***
  0   -488.0856158459   0.000000000000 0.01104035  0.00016596  0.0812795 0.7000
  1   -488.0953064613  -0.009690615446 0.01062256  0.00016377  0.0539991 0.7000
                               ***Turning on DIIS***
  2   -488.1015255407  -0.006219079418 0.02360160  0.00039709  0.0315331 0.0000
  3   -488.1111090745  -0.009583533768 0.00626196  0.00009914  0.0160808 0.0000
  4   -488.1122396622  -0.001130587647 0.00250220  0.00003971  0.0038532 0.0000
                      *** Initiating the SOSCF procedure ***
                           *** Shutting down DIIS ***
                      *** Re-Reading the Fockian *** 
                      *** Removing any level shift *** 
ITER      Energy       Delta-E        Grad      Rot      Max-DP    RMS-DP
  5   -488.11233455  -0.0000948910  0.000751  0.000751  0.001089  0.000017
               *** Restarting incremental Fock matrix formation ***
  6   -488.11234704  -0.0000124862  0.000372  0.001689  0.000814  0.000013
  7   -488.11234863  -0.0000015909  0.000172  0.000436  0.000161  0.000003
  8   -488.11234922  -0.0000005859  0.000030  0.000074  0.000092  0.000001
  9   -488.11234922   0.0000000001  0.000028  0.000039  0.000028  0.000000
 10   -488.11234925  -0.0000000340  0.000006  0.000010  0.000011  0.000000
                  ***Gradient check signals convergence***
              ***Rediagonalizing the Fockian in SOSCF/NRSCF***

               *****************************************************
               *                     SUCCESS                       *
               *           SCF CONVERGED AFTER  11 CYCLES          *
               *****************************************************


----------------
TOTAL SCF ENERGY
----------------

Total Energy       :         -488.11234926 Eh          -13282.21228 eV

Components:
Nuclear Repulsion  :           87.62208157 Eh            2384.31806 eV
Electronic Energy  :         -575.73443083 Eh          -15666.53033 eV
One Electron Energy:         -851.76856475 Eh          -23177.80098 eV
Two Electron Energy:          276.03413392 Eh            7511.27065 eV

Virial components:
Potential Energy   :         -976.14895907 Eh          -26562.36358 eV
Kinetic Energy     :          488.03660981 Eh           13280.15130 eV
Virial Ratio       :            2.00015519


DFT components:
N(Alpha)           :       16.000000569789 electrons
N(Beta)            :       16.000000569789 electrons
N(Total)           :       32.000001139577 electrons
E(X)               :      -38.161875406786 Eh       
E(C)               :       -1.093967139351 Eh       
E(XC)              :      -39.255842546137 Eh       
DFET-embed. en.    :        0.000000000000 Eh       

---------------
SCF CONVERGENCE
---------------

  Last Energy change         ...   -9.8742e-09  Tolerance :   1.0000e-08
  Last MAX-Density change    ...    1.1223e-05  Tolerance :   1.0000e-07
  Last RMS-Density change    ...    1.1076e-07  Tolerance :   5.0000e-09
  Last Orbital Gradient      ...    2.1926e-06  Tolerance :   1.0000e-05
  Last Orbital Rotation      ...    3.6545e-06  Tolerance :   1.0000e-05

             **** THE GBW FILE WAS UPDATED (run.gbw) ****
             **** DENSITY run.scfp WAS UPDATED ****
             **** ENERGY FILE WAS UPDATED (run.en.tmp) ****
             **** THE GBW FILE WAS UPDATED (run.gbw) ****
             **** DENSITY run.scfp WAS UPDATED ****
----------------
ORBITAL ENERGIES
----------------

  NO   OCC          E(Eh)            E(eV) 
   0   2.0000     -55.360612     -1506.4388 
   1   2.0000     -55.360558     -1506.4374 
   2   2.0000      -3.942639      -107.2847 
   3   2.0000      -3.941271      -107.2474 
   4   2.0000      -2.548099       -69.3373 
   5   2.0000      -2.544913       -69.2506 
   6   2.0000      -2.544054       -69.2272 
   7   2.0000      -2.540787       -69.1383 
   8   2.0000      -2.539415       -69.1010 
   9   2.0000      -2.538616       -69.0793 
  10   2.0000      -0.506501       -13.7826 
  11   2.0000      -0.378967       -10.3122 
  12   2.0000      -0.345164        -9.3924 
  13   2.0000      -0.294546        -8.0150 
  14   2.0000      -0.280990        -7.6461 
  15   2.0000      -0.255100        -6.9416 
  16   0.0000      -0.083080        -2.2607 
  17   0.0000      -0.060781        -1.6539 
  18   0.0000      -0.060026        -1.6334 
  19   0.0000      -0.006318        -0.1719 
  20   0.0000      -0.005132        -0.1397 
  21   0.0000       0.002190         0.0596 
  22   0.0000       0.025177         0.6851 
  23   0.0000       0.026295         0.7155 
  24   0.0000       0.032283         0.8785 
  25   0.0000       0.047707         1.2982 
  26   0.0000       0.070097         1.9074 
  27   0.0000       0.071494         1.9454 
  28   0.0000       0.074849         2.0367 
  29   0.0000       0.078465         2.1352 
  30   0.0000       0.091160         2.4806 
  31   0.0000       0.117541         3.1985 
  32   0.0000       0.130553         3.5525 
  33   0.0000       0.137649         3.7456 
  34   0.0000       0.148116         4.0304 
  35   0.0000       0.152482         4.1492 
  36   0.0000       0.158337         4.3086 
  37   0.0000       0.166730         4.5370 
  38   0.0000       0.192042         5.2257 
  39   0.0000       0.225639         6.1399 
  40   0.0000       0.229484         6.2446 
  41   0.0000       0.246815         6.7162 
  42   0.0000       0.303735         8.2650 
  43   0.0000       0.305709         8.3188 
  44   0.0000       0.308001         8.3811 
  45   0.0000       0.324558         8.8317 
  46   0.0000       0.325652         8.8614 
  47   0.0000       0.347175         9.4471 
  48   0.0000       0.358160         9.7460 
  49   0.0000       0.367708        10.0058 
  50   0.0000       0.370998        10.0954 
  51   0.0000       0.388810        10.5800 
  52   0.0000       0.397835        10.8257 
  53   0.0000       0.402176        10.9438 
  54   0.0000       0.424471        11.5504 
  55   0.0000       0.451589        12.2884 
  56   0.0000       0.471102        12.8193 
  57   0.0000       0.494108        13.4454 
  58   0.0000       0.505750        13.7622 
  59   0.0000       0.510903        13.9024 
  60   0.0000       0.515112        14.0169 
  61   0.0000       0.525916        14.3109 
  62   0.0000       0.532620        14.4933 
  63   0.0000       0.569143        15.4872 
  64   0.0000       0.580436        15.7945 
  65   0.0000       0.584003        15.8915 
  66   0.0000       0.606522        16.5043 
  67   0.0000       0.642243        17.4763 
  68   0.0000       0.661700        18.0058 
  69   0.0000       0.687961        18.7204 
  70   0.0000       0.733470        19.9587 
  71   0.0000       0.749980        20.4080 
  72   0.0000       0.763919        20.7873 
  73   0.0000       0.778775        21.1915 
  74   0.0000       0.781022        21.2527 
  75   0.0000       0.799243        21.7485 
  76   0.0000       0.800015        21.7695 
  77   0.0000       0.817479        22.2447 
  78   0.0000       0.823871        22.4187 
  79   0.0000       0.844256        22.9734 
  80   0.0000       0.887358        24.1462 
  81   0.0000       0.898834        24.4585 
  82   0.0000       0.922029        25.0897 
  83   0.0000       0.924632        25.1605 
  84   0.0000       0.956635        26.0314 
  85   0.0000       0.980240        26.6737 
  86   0.0000       1.016915        27.6717 
  87   0.0000       1.074513        29.2390 
  88   0.0000       1.076464        29.2921 
  89   0.0000       1.089490        29.6465 
  90   0.0000       1.098349        29.8876 
  91   0.0000       1.099640        29.9227 
  92   0.0000       1.139013        30.9941 
  93   0.0000       1.153505        31.3885 
  94   0.0000       1.191681        32.4273 
  95   0.0000       1.198824        32.6217 
  96   0.0000       1.222354        33.2619 
  97   0.0000       1.229102        33.4456 
  98   0.0000       1.278268        34.7834 
  99   0.0000       1.329937        36.1894 
 100   0.0000       1.385655        37.7056 
 101   0.0000       1.399210        38.0744 
 102   0.0000       1.420390        38.6508 
 103   0.0000       1.450102        39.4593 
 104   0.0000       1.466213        39.8977 
 105   0.0000       1.517411        41.2909 
 106   0.0000       1.542732        41.9799 
 107   0.0000       1.556004        42.3410 
 108   0.0000       1.569851        42.7178 
 109   0.0000       1.575196        42.8633 
 110   0.0000       1.580955        43.0200 
 111   0.0000       1.606795        43.7231 
 112   0.0000       1.643098        44.7110 
 113   0.0000       1.681655        45.7602 
 114   0.0000       1.682177        45.7744 
 115   0.0000       1.722832        46.8806 
 116   0.0000       1.744489        47.4700 
 117   0.0000       1.746658        47.5290 
 118   0.0000       1.778032        48.3827 
 119   0.0000       1.783196        48.5232 
 120   0.0000       1.795781        48.8657 
 121   0.0000       1.832171        49.8559 
 122   0.0000       1.843214        50.1564 
 123   0.0000       1.853762        50.4434 
 124   0.0000       1.855363        50.4870 
 125   0.0000       1.864005        50.7221 
 126   0.0000       1.890905        51.4541 
 127   0.0000       1.897142        51.6239 
 128   0.0000       1.909919        51.9715 
 129   0.0000       1.943904        52.8963 
 130   0.0000       1.971947        53.6594 
 131   0.0000       2.004401        54.5425 
 132   0.0000       2.011768        54.7430 
 133   0.0000       2.110249        57.4228 
 134   0.0000       2.111916        57.4682 
 135   0.0000       2.115946        57.5778 
 136   0.0000       2.156084        58.6700 
 137   0.0000       2.175032        59.1856 
 138   0.0000       2.200055        59.8666 
 139   0.0000       2.222401        60.4746 
 140   0.0000       2.241248        60.9874 
 141   0.0000       2.248271        61.1786 
 142   0.0000       2.282303        62.1046 
 143   0.0000       2.293296        62.4038 
 144   0.0000       2.349798        63.9413 
 145   0.0000       2.360017        64.2193 
 146   0.0000       2.389055        65.0095 
 147   0.0000       2.389331        65.0170 
 148   0.0000       2.390596        65.0514 
 149   0.0000       2.402598        65.3780 
 150   0.0000       2.437884        66.3382 
 151   0.0000       2.469154        67.1891 
 152   0.0000       2.506846        68.2147 
 153   0.0000       2.538952        69.0884 
 154   0.0000       2.547069        69.3093 
 155   0.0000       2.565446        69.8093 
 156   0.0000       2.606383        70.9233 
 157   0.0000       2.641158        71.8696 
 158   0.0000       2.733770        74.3897 
 159   0.0000       2.802147        76.2503 
 160   0.0000       2.859858        77.8207 
 161   0.0000       2.892580        78.7111 
 162   0.0000       2.894393        78.7604 
 163   0.0000       2.915019        79.3217 
 164   0.0000       2.930590        79.7454 
 165   0.0000       2.991151        81.3934 
 166   0.0000       3.041467        82.7625 
 167   0.0000       3.077287        83.7372 
 168   0.0000       3.163264        86.0768 
 169   0.0000       3.165772        86.1450 
 170   0.0000       3.210403        87.3595 
 171   0.0000       3.231985        87.9468 
 172   0.0000       3.335184        90.7550 
 173   0.0000       3.367268        91.6280 
 174   0.0000       3.372421        91.7682 
 175   0.0000       3.379582        91.9631 
 176   0.0000       3.408003        92.7365 
 177   0.0000       3.487898        94.9105 
 178   0.0000       3.516796        95.6969 
 179   0.0000       3.583327        97.5073 
 180   0.0000       3.599805        97.9557 
 181   0.0000       3.610643        98.2506 
 182   0.0000       3.681833       100.1878 
 183   0.0000       3.689152       100.3869 
 184   0.0000       3.689556       100.3979 
 185   0.0000       3.733086       101.5824 
 186   0.0000       3.790637       103.1485 
 187   0.0000       3.800316       103.4119 
 188   0.0000       3.800961       103.4294 
 189   0.0000       3.815341       103.8207 
 190   0.0000       3.819361       103.9301 
 191   0.0000       3.858562       104.9968 
 192   0.0000       3.959245       107.7365 
 193   0.0000       3.969651       108.0197 
 194   0.0000       3.975524       108.1795 
 195   0.0000       4.024540       109.5133 
 196   0.0000       4.108746       111.8047 
 197   0.0000       4.119407       112.0948 
 198   0.0000       4.186409       113.9180 
 199   0.0000       4.348730       118.3350 
 200   0.0000       4.463686       121.4631 
 201   0.0000       4.471804       121.6840 
 202   0.0000       4.472341       121.6986 
 203   0.0000       4.473426       121.7281 
 204   0.0000       4.588346       124.8552 
 205   0.0000       4.783305       130.1603 
 206   0.0000       4.864245       132.3628 
 207   0.0000       4.933810       134.2558 
 208   0.0000       4.976857       135.4272 
 209   0.0000       5.006437       136.2321 
 210   0.0000       5.011054       136.3577 
 211   0.0000       5.011642       136.3737 
 212   0.0000       5.044722       137.2739 
 213   0.0000       5.046377       137.3189 
 214   0.0000       5.083609       138.3320 
 215   0.0000       5.182574       141.0250 
 216   0.0000       5.383428       146.4905 
 217   0.0000       5.410227       147.2198 
 218   0.0000       5.412740       147.2881 
 219   0.0000       5.516432       150.1098 
 220   0.0000       5.520772       150.2278 
 221   0.0000       5.637294       153.3986 
 222   0.0000       5.735144       156.0612 
 223   0.0000       5.830010       158.6426 
 224   0.0000       7.424772       202.0383 
 225   0.0000       7.443506       202.5481 
 226   0.0000       7.491044       203.8417 
 227   0.0000       7.493566       203.9103 
 228   0.0000       7.512989       204.4388 
 229   0.0000       7.540665       205.1919 
 230   0.0000       7.547073       205.3663 
 231   0.0000       7.588773       206.5010 
 232   0.0000       7.588782       206.5013 
 233   0.0000       7.643457       207.9890 
 234   0.0000       7.644203       208.0093 
 235   0.0000       7.650899       208.1915 
 236   0.0000       7.687688       209.1926 
 237   0.0000       7.745158       210.7565 
 238   0.0000       7.746763       210.8001 
 239   0.0000       7.748932       210.8592 
 240   0.0000       7.758338       211.1151 
 241   0.0000       7.814569       212.6452 
 242   0.0000       7.853899       213.7155 
 243   0.0000       7.876467       214.3296 
 244   0.0000       7.885309       214.5702 
 245   0.0000       7.889983       214.6973 
 246   0.0000       7.897976       214.9149 
 247   0.0000       7.917837       215.4553 
 248   0.0000       7.924477       215.6360 
 249   0.0000       7.933219       215.8739 
 250   0.0000       7.965702       216.7578 
 251   0.0000       8.003187       217.7778 
 252   0.0000       8.099562       220.4003 
 253   0.0000       8.100750       220.4326 
 254   0.0000       8.453594       230.0340 
 255   0.0000       8.489484       231.0106 
 256   0.0000       8.599865       234.0142 
 257   0.0000       8.600429       234.0296 
 258   0.0000       8.618839       234.5305 
 259   0.0000       8.692713       236.5407 
 260   0.0000       8.959954       243.8127 
 261   0.0000       9.071644       246.8520 
 262   0.0000       9.109224       247.8746 
 263   0.0000       9.124128       248.2801 
 264   0.0000       9.150276       248.9917 
 265   0.0000       9.150564       248.9995 
 266   0.0000       9.152004       249.0387 
 267   0.0000       9.154657       249.1109 
 268   0.0000       9.155109       249.1232 
 269   0.0000       9.161522       249.2977 
 270   0.0000       9.161583       249.2994 
 271   0.0000       9.170644       249.5459 
 272   0.0000       9.200276       250.3523 
 273   0.0000       9.212885       250.6953 
 274   0.0000       9.228358       251.1164 
 275   0.0000       9.232337       251.2247 
 276   0.0000       9.233023       251.2433 
 277   0.0000       9.240585       251.4491 
 278   0.0000       9.252268       251.7670 
 279   0.0000       9.253670       251.8052 
 280   0.0000       9.278775       252.4883 
 281   0.0000       9.333828       253.9864 
 282   0.0000       9.398874       255.7564 
 283   0.0000       9.429682       256.5947 
 284   0.0000       9.441210       256.9084 
 285   0.0000       9.447192       257.0712 
 286   0.0000       9.485823       258.1224 
 287   0.0000       9.544060       259.7071 
 288   0.0000       9.623863       261.8786 
 289   0.0000       9.654618       262.7155 
 290   0.0000       9.663316       262.9522 
 291   0.0000       9.682799       263.4823 
 292   0.0000       9.705121       264.0898 
 293   0.0000       9.752341       265.3747 
 294   0.0000       9.752646       265.3830 
 295   0.0000       9.765875       265.7430 
 296   0.0000       9.773473       265.9497 
 297   0.0000       9.827479       267.4193 
 298   0.0000       9.878042       268.7952 
 299   0.0000       9.916052       269.8295 
 300   0.0000       9.924913       270.0706 
 301   0.0000       9.981440       271.6088 
 302   0.0000      12.310895       334.9965 
 303   0.0000      12.435820       338.3959 
 304   0.0000      13.388929       364.3313 
 305   0.0000      13.391249       364.3944 
 306   0.0000      13.480501       366.8231 
 307   0.0000      13.821990       376.1155 
 308   0.0000      13.857037       377.0692 
 309   0.0000      13.876866       377.6087 
 310   0.0000      13.886115       377.8604 
 311   0.0000      13.957502       379.8029 
 312   0.0000      14.049744       382.3130 
 313   0.0000      14.129027       384.4704 
 314   0.0000      18.998566       516.9773 
 315   0.0000      19.075618       519.0740 
 316   0.0000      19.097325       519.6646 
 317   0.0000      19.104299       519.8544 
 318   0.0000      19.111936       520.0622 
 319   0.0000      19.137988       520.7711 
 320   0.0000      19.157323       521.2973 
 321   0.0000      19.165296       521.5142 
 322   0.0000      19.168895       521.6121 
 323   0.0000      19.218463       522.9610 
 324   0.0000      19.332809       526.0725 
 325   0.0000      19.387099       527.5498 
 326   0.0000      19.517853       531.1078 
 327   0.0000      19.537170       531.6334 
 328   0.0000      19.542377       531.7751 
 329   0.0000      19.595225       533.2132 
 330   0.0000      19.671421       535.2866 
 331   0.0000      19.715972       536.4989 
-------
TIMINGS
-------

Total SCF time: 0 days 0 hours 1 min 59 sec 

Total time                  ....     119.167 sec
Sum of individual times     ....     117.777 sec  ( 98.8%)

Fock matrix formation       ....     111.449 sec  ( 93.5%)
  Split-RI-J                ....      54.369 sec  ( 48.8% of F)
  XC integration            ....      56.883 sec  ( 51.0% of F)
    Basis function eval.    ....      16.122 sec  ( 28.3% of XC)
    Density eval.           ....      17.466 sec  ( 30.7% of XC)
    XC-Functional eval.     ....       2.067 sec  (  3.6% of XC)
    XC-Potential eval.      ....      19.771 sec  ( 34.8% of XC)
Diagonalization             ....       0.438 sec  (  0.4%)
Density matrix formation    ....       0.021 sec  (  0.0%)
Population analysis         ....       0.000 sec  (  0.0%)
Initial guess               ....       1.844 sec  (  1.5%)
Orbital Transformation      ....       0.000 sec  (  0.0%)
Orbital Orthonormalization  ....       0.000 sec  (  0.0%)
DIIS solution               ....       0.138 sec  (  0.1%)
SOSCF solution              ....       0.269 sec  (  0.2%)
Grid generation             ....       3.619 sec  (  3.0%)

Maximum memory used throughout the entire SCF-calculation: 206.3 MB


-------------------------------------------------------------------------------
                          DFT DISPERSION CORRECTION                            
                                                                               
                              DFTD3 V3.1  Rev 1                                
                          USING Becke-Johnson damping                          
-------------------------------------------------------------------------------
The PBE functional is recognized
Active option DFTDOPT                   ...         4   

molecular C6(AA) [au] = 1235.577952 


            DFT-D V3
 parameters
 s6 scaling factor         :     1.0000 
 a1 scaling factor         :     0.4289 
 s8 scaling factor         :     0.7875 
 a2 scaling factor         :     4.4407 
 ad hoc parameters k1-k3   :    16.0000     1.3333    -4.0000 

 Edisp/kcal,au: -2.923404696007  -0.004658741429 
 E6   /kcal   :  -1.864835270 
 E8   /kcal   :  -1.058569426 
 % E8         :  36.210156841 

-------------------------   ----------------
Dispersion correction           -0.004658741
-------------------------   ----------------


-------------------------   --------------------
FINAL SINGLE POINT ENERGY      -488.117008001382
-------------------------   --------------------

------------------------------------------------------------------------------
                         ORCA SCF GRADIENT CALCULATION
------------------------------------------------------------------------------

Gradient of the Kohn-Sham DFT energy:
Kohn-Sham wavefunction type      ... RKS
Hartree-Fock exchange scaling    ...    0.000
Number of operators              ...    1
Number of atoms                  ...    8
Basis set dimensions             ...  332
Integral neglect threshold       ... 2.5e-11
Integral primitive cutoff        ... 2.5e-12
SHARK Integral package           ... ON

Nuc. rep. gradient       (SHARK) ... done (  0.0 sec)
HCore & Overlap gradient (SHARK) ... done (  0.8 sec)
RI-J gradient            (SHARK) ... done ( 23.3 sec)
Exchange-correlation gradient    ... done
Dispersion correction            ... done

------------------
CARTESIAN GRADIENT
------------------

   1   Al  :    0.000100990    0.000233770    0.150338318
   2   H   :   -0.001281820   -0.002924294   -0.007836775
   3   H   :    0.001205837    0.002745593   -0.007935306
   4   H   :    0.014678744   -0.006506642   -0.000017930
   5   Al  :    0.000123536    0.000300721   -0.150332810
   6   H   :   -0.001273815   -0.002912018    0.007834594
   7   H   :    0.001176579    0.002673243    0.007968175
   8   H   :   -0.014730050    0.006389626   -0.000018266

Difference to translation invariance:
           :    0.0000000000   -0.0000000000   -0.0000000000

Difference to rotation invariance:
           :    0.0000000049    0.0000000047    0.0000021205

Norm of the cartesian gradient     ...    0.2144863984
RMS gradient                       ...    0.0437818527
MAX gradient                       ...    0.1503383178

-------
TIMINGS
-------

Total SCF gradient time            ...       51.391 sec

One electron gradient       ....       0.826 sec  (  1.6%)
RI-J Coulomb gradient       ....      23.265 sec  ( 45.3%)
XC gradient                 ....      26.265 sec  ( 51.1%)

Maximum memory used throughout the entire SCFGRAD-calculation: 203.3 MB
------------------------------------------------------------------------------
                         ORCA GEOMETRY RELAXATION STEP
------------------------------------------------------------------------------

Reading the OPT-File                    .... done
Getting information on internals        .... done
Copying old internal coords+grads       .... done
Making the new internal coordinates     .... (new redundants).... done
Validating the new internal coordinates .... (new redundants).... done
Calculating the B-matrix                .... done
Calculating the G,G- and P matrices     .... done
Transforming gradient to internals      .... done
Projecting the internal gradient        .... done
Number of atoms                         ....   8
Number of internal coordinates          ....  57
Current Energy                          ....  -488.117008001 Eh
Current gradient norm                   ....     0.214486398 Eh/bohr
Maximum allowed component of the step   ....  0.300
Current trust radius                    ....  0.300
Evaluating the initial hessian          ....  (Almloef) done
Projecting the Hessian                  .... done
Forming the augmented Hessian           .... done
Diagonalizing the augmented Hessian     .... done
Last element of RFO vector              ....  0.993391214
Lowest eigenvalues of augmented Hessian:
 -0.009604207  0.036210009  0.053026057  0.066493338  0.068460988
Length of the computed step             ....  0.115541179
The final length of the internal step   ....  0.115541179
Converting the step to cartesian space:
 Initial RMS(Int)=    0.0153038030
Transforming coordinates:
 Iter   0:  RMS(Cart)=    0.0182681030 RMS(Int)=    0.0152978368
 Iter   1:  RMS(Cart)=    0.0002043759 RMS(Int)=    0.0001326795
 Iter   2:  RMS(Cart)=    0.0000025268 RMS(Int)=    0.0000016323
 Iter   3:  RMS(Cart)=    0.0000000530 RMS(Int)=    0.0000000338
done
Storing new coordinates                 .... done

                                .--------------------.
          ----------------------|Geometry convergence|-------------------------
          Item                value                   Tolerance       Converged
          ---------------------------------------------------------------------
          RMS gradient        0.0147416367            0.0000300000      NO
          MAX gradient        0.0836655373            0.0001000000      NO
          RMS step            0.0153038030            0.0006000000      NO
          MAX step            0.0497734831            0.0010000000      NO
          ........................................................
          Max(Bonds)      0.0263      Max(Angles)    1.90
          Max(Dihed)        1.13      Max(Improp)    0.00
          ---------------------------------------------------------------------

The optimization has not yet converged - more geometry cycles are needed


    ---------------------------------------------------------------------------
                         Redundant Internal Coordinates
                            (Angstroem and degrees)

        Definition                    Value    dE/dq     Step     New-Value
    ----------------------------------------------------------------------------
     1. B(H   1,Al  0)                1.6001  0.002020 -0.0027    1.5974   
     2. B(H   2,Al  0)                1.6004  0.002087 -0.0028    1.5976   
     3. B(H   3,Al  0)                1.7078 -0.009019 -0.0080    1.6998   
     4. B(Al  4,H   3)                1.7080 -0.009009 -0.0080    1.7000   
     5. B(Al  4,Al  0)                2.0681 -0.083666  0.0263    2.0944   
     6. B(H   5,Al  4)                1.6001  0.002031 -0.0027    1.5974   
     7. B(H   6,Al  4)                1.6007  0.002166 -0.0029    1.5978   
     8. B(H   7,Al  4)                1.7080 -0.009008 -0.0080    1.7000   
     9. B(H   7,Al  0)                1.7079 -0.009019 -0.0080    1.6999   
    10. A(H   2,Al  0,H   7)          110.56 -0.004499   -0.12    110.44   
    11. A(H   3,Al  0,Al  4)           52.74  0.014165   -0.76     51.98   
    12. A(H   2,Al  0,Al  4)          124.95  0.004520   -0.95    123.99   
    13. A(H   3,Al  0,H   7)          105.48  0.028329   -1.52    103.96   
    14. A(H   1,Al  0,H   7)          110.57 -0.004648   -0.13    110.44   
    15. A(H   2,Al  0,H   3)          110.55 -0.004501   -0.11    110.44   
    16. A(H   1,Al  0,Al  4)          125.98  0.004637   -0.94    125.03   
    17. A(H   1,Al  0,H   3)          110.57 -0.004648   -0.13    110.44   
    18. A(H   1,Al  0,H   2)          109.08 -0.009156    1.90    110.98   
    19. A(Al  4,Al  0,H   7)           52.74  0.014165   -0.76     51.98   
    20. A(Al  0,H   3,Al  4)           74.52 -0.028321    1.52     76.04   
    21. A(H   5,Al  4,H   6)          109.10 -0.009142    1.89    111.00   
    22. A(H   3,Al  4,H   6)          110.54 -0.004495   -0.11    110.42   
    23. A(Al  0,Al  4,H   6)          124.92  0.004511   -0.95    123.96   
    24. A(H   5,Al  4,H   7)          110.58 -0.004646   -0.14    110.44   
    25. A(H   3,Al  4,H   5)          110.57 -0.004648   -0.13    110.44   
    26. A(H   3,Al  4,H   7)          105.47  0.028312   -1.52    103.95   
    27. A(Al  0,Al  4,H   7)           52.74  0.014157   -0.76     51.98   
    28. A(Al  0,Al  4,H   5)          125.98  0.004631   -0.94    125.04   
    29. A(H   6,Al  4,H   7)          110.55 -0.004491   -0.12    110.43   
    30. A(Al  0,Al  4,H   3)           52.74  0.014157   -0.76     51.98   
    31. A(Al  0,H   7,Al  4)           74.52 -0.028321    1.52     76.04   
    32. D(Al  4,H   3,Al  0,H   1)    120.19  0.008783   -1.09    119.10   
    33. D(Al  4,H   3,Al  0,H   7)      0.63  0.000124    0.04      0.67   
    34. D(Al  4,H   3,Al  0,H   2)   -118.91 -0.008775    1.13   -117.78   
    35. D(H   6,Al  4,Al  0,H   2)      0.01  0.000001   -0.00      0.00   
    36. D(H   6,Al  4,Al  0,H   3)    -90.37  0.000050   -0.03    -90.40   
    37. D(H   5,Al  4,Al  0,H   1)     -0.01 -0.000001    0.00     -0.00   
    38. D(H   5,Al  4,Al  0,H   3)     89.62  0.000047   -0.03     89.59   
    39. D(H   5,Al  4,Al  0,H   2)    179.99 -0.000002    0.00    179.99   
    40. D(H   3,Al  4,Al  0,H   2)     90.38 -0.000049    0.03     90.41   
    41. D(H   6,Al  4,Al  0,H   1)   -179.99  0.000002   -0.00   -179.99   
    42. D(H   3,Al  4,Al  0,H   1)    -89.62 -0.000048    0.03    -89.59   
    43. D(H   3,Al  4,Al  0,H   7)   -179.24 -0.000096    0.06   -179.18   
    44. D(H   6,Al  4,Al  0,H   7)     90.39 -0.000046    0.03     90.42   
    45. D(H   7,Al  4,Al  0,H   1)     89.62  0.000048   -0.03     89.59   
    46. D(H   7,Al  4,Al  0,H   2)    -90.38  0.000047   -0.03    -90.41   
    47. D(H   7,Al  4,Al  0,H   3)    179.24  0.000096   -0.06    179.18   
    48. D(H   5,Al  4,H   3,Al  0)   -120.19 -0.008776    1.09   -119.11   
    49. D(H   6,Al  4,H   3,Al  0)    118.88  0.008761   -1.13    117.75   
    50. D(H   7,Al  4,H   3,Al  0)     -0.63 -0.000124   -0.04     -0.67   
    51. D(H   5,Al  4,Al  0,H   7)    -89.63 -0.000049    0.03    -89.59   
    52. D(Al  0,H   7,Al  4,H   6)   -118.88 -0.008762    1.13   -117.75   
    53. D(Al  0,H   7,Al  4,H   5)    120.19  0.008777   -1.09    119.10   
    54. D(Al  0,H   7,Al  4,H   3)      0.63  0.000124    0.04      0.67   
    55. D(Al  4,H   7,Al  0,H   3)     -0.63 -0.000124   -0.04     -0.67   
    56. D(Al  4,H   7,Al  0,H   2)    118.91  0.008775   -1.13    117.78   
    57. D(Al  4,H   7,Al  0,H   1)   -120.19 -0.008783    1.09   -119.10   
    ----------------------------------------------------------------------------

         *************************************************************
         *                GEOMETRY OPTIMIZATION CYCLE   2            *
         *************************************************************
---------------------------------
CARTESIAN COORDINATES (ANGSTROEM)
---------------------------------
  Al    -0.000087   -0.000208   -0.013131
  H      0.525077    1.197732   -0.930144
  H     -0.531900   -1.213348   -0.906346
  H      1.230145   -0.529114    1.033919
  Al    -0.000087   -0.000222    2.081202
  H      0.525144    1.197580    2.998354
  H     -0.532051   -1.213970    2.973883
  H     -1.222640    0.546220    1.033944

----------------------------
CARTESIAN COORDINATES (A.U.)
----------------------------
  NO LB      ZA    FRAG     MASS         X           Y           Z
   0 Al   13.0000    0    26.982   -0.000164   -0.000393   -0.024814
   1 H     1.0000    0     1.008    0.992252    2.263386   -1.757718
   2 H     1.0000    0     1.008   -1.005146   -2.292895   -1.712745
   3 H     1.0000    0     1.008    2.324637   -0.999880    1.953823
   4 Al   13.0000    0    26.982   -0.000164   -0.000419    3.932901
   5 H     1.0000    0     1.008    0.992377    2.263098    5.666068
   6 H     1.0000    0     1.008   -1.005432   -2.294072    5.619824
   7 H     1.0000    0     1.008   -2.310456    1.032206    1.953871

--------------------------------
INTERNAL COORDINATES (ANGSTROEM)
--------------------------------
 Al     0   0   0     0.000000000000     0.00000000     0.00000000
 H      1   0   0     1.597426539174     0.00000000     0.00000000
 H      1   2   0     1.597612703654   110.97330241     0.00000000
 H      1   2   3     1.699860182286   110.42634093   122.79475410
 Al     4   1   2     1.699999213438    76.05007288   119.10495314
 H      5   4   1     1.597424007149   110.42885752   240.88977045
 H      5   4   1     1.597827135758   110.41259804   117.75770569
 H      1   2   3     1.699878854961   110.42500202   237.20280686

---------------------------
INTERNAL COORDINATES (A.U.)
---------------------------
 Al     0   0   0     0.000000000000     0.00000000     0.00000000
 H      1   0   0     3.018698678096     0.00000000     0.00000000
 H      1   2   0     3.019050477979   110.97330241     0.00000000
 H      1   2   3     3.212270210477   110.42634093   122.79475410
 Al     4   1   2     3.212532941280    76.05007288   119.10495314
 H      5   4   1     3.018693893264   110.42885752   240.88977045
 H      5   4   1     3.019455695931   110.41259804   117.75770569
 H      1   2   3     3.212305496719   110.42500202   237.20280686

------------------------------------------------------------------------------
                   ___                                                        
                  /   \      - P O W E R E D   B Y -                         
                 /     \                                                     
                 |  |  |   _    _      __       _____    __    __             
                 |  |  |  | |  | |    /  \     |  _  \  |  |  /  |          
                  \  \/   | |  | |   /    \    | | | |  |  | /  /          
                 / \  \   | |__| |  /  /\  \   | |_| |  |  |/  /          
                |  |  |   |  __  | /  /__\  \  |    /   |      \           
                |  |  |   | |  | | |   __   |  |    \   |  |\   \          
                \     /   | |  | | |  |  |  |  | |\  \  |  | \   \       
                 \___/    |_|  |_| |__|  |__|  |_| \__\ |__|  \__/        
                                                                              
                      - O R C A' S   B I G   F R I E N D -                    
                                      &                                       
                       - I N T E G R A L  F E E D E R -                       
                                                                              
 v1 FN, 2020, v2 2021                                                         
------------------------------------------------------------------------------


Reading SHARK input file run.SHARKINP.tmp ... ok
----------------------
SHARK INTEGRAL PACKAGE
----------------------

Number of atoms                             ...      8
Number of basis functions                   ...    332
Number of shells                            ...    108
Maximum angular momentum                    ...      4
Integral batch strategy                     ... SHARK/LIBINT Hybrid
RI-J (if used) integral strategy            ... SPLIT-RIJ (Revised 2003 algorithm where possible)
Printlevel                                  ...      1
Contraction scheme used                     ... SEGMENTED contraction
Coulomb Range Separation                    ... NOT USED
Exchange Range Separation                   ... NOT USED
Finite Nucleus Model                        ... NOT USED
Auxiliary Coulomb fitting basis             ... AVAILABLE
   # of basis functions in Aux-J            ...   1430
   # of shells in Aux-J                     ...    358
   Maximum angular momentum in Aux-J        ...      5
Auxiliary J/K fitting basis                 ... AVAILABLE
   # of basis functions in Aux-JK           ...   1430
   # of shells in Aux-JK                    ...    358
   Maximum angular momentum in Aux-JK       ...      5
Auxiliary Correlation fitting basis         ... AVAILABLE
   # of basis functions in Aux-C            ...   1430
   # of shells in Aux-C                     ...    358
   Maximum angular momentum in Aux-C        ...      5
Auxiliary 'external' fitting basis          ... NOT available
Integral threshold                          ...     2.500000e-11
Primitive cut-off                           ...     2.500000e-12
Primitive pair pre-selection threshold      ...     2.500000e-12

Calculating pre-screening integrals         ... done (  0.6 sec) Dimension = 108
Organizing shell pair data                  ... done (  0.3 sec)
Shell pair information
Total number of shell pairs                 ...      5886
Shell pairs after pre-screening             ...      5490
Total number of primitive shell pairs       ...     25269
Primitive shell pairs kept                  ...     18212
          la=0 lb=0:    865 shell pairs
          la=1 lb=0:   1338 shell pairs
          la=1 lb=1:    534 shell pairs
          la=2 lb=0:    798 shell pairs
          la=2 lb=1:    614 shell pairs
          la=2 lb=2:    197 shell pairs
          la=3 lb=0:    396 shell pairs
          la=3 lb=1:    298 shell pairs
          la=3 lb=2:    184 shell pairs
          la=3 lb=3:     51 shell pairs
          la=4 lb=0:     84 shell pairs
          la=4 lb=1:     68 shell pairs
          la=4 lb=2:     40 shell pairs
          la=4 lb=3:     20 shell pairs
          la=4 lb=4:      3 shell pairs

Calculating one electron integrals          ... done (  0.1 sec)
Calculating RI/J V-Matrix + Cholesky decomp.... done (  0.3 sec)
Calculating RI/JK V-Matrix + Cholesky decomp... done (  0.3 sec)
Calculating RI/C V-Matrix + Cholesky decomp.... done (  0.3 sec)
Calculating Nuclear repulsion               ... done (  0.0 sec) ENN=     87.172084000290 Eh

SHARK setup successfully completed in   2.7 seconds

Maximum memory used throughout the entire GTOINT-calculation: 172.0 MB

Diagonalization of the overlap matrix:
Smallest eigenvalue                        ... 1.834e-04
Time for diagonalization                   ...    0.048 sec
Threshold for overlap eigenvalues          ... 1.000e-08
Number of eigenvalues below threshold      ... 0
Time for construction of square roots      ...    0.021 sec
Total time needed                          ...    0.070 sec

-------------------
DFT GRID GENERATION
-------------------

General Integration Accuracy     IntAcc      ... 4.959
Radial Grid Type                 RadialGrid  ... OptM3 with GC (2021)
Angular Grid (max. ang.)         AngularGrid ... 6 (Lebedev-590)
Angular grid pruning method      GridPruning ... 4 (adaptive)
Weight generation scheme         WeightScheme... Becke
Basis function cutoff            BFCut       ... 1.0000e-11
Integration weight cutoff        WCut        ... 1.0000e-14
Angular grids for H and He will be reduced by one unit
Partially contracted basis set               ... off
Rotationally invariant grid construction     ... off

Total number of grid points                  ...    91036
Total number of batches                      ...     1426
Average number of points per batch           ...       63
Average number of grid points per atom       ...    11380
Time for grid setup =    3.093 sec

--------------
SCF ITERATIONS
--------------
ITER       Energy         Delta-E        Max-DP      RMS-DP      [F,P]     Damp
               ***  Starting incremental Fock matrix formation  ***
                      *** Initiating the SOSCF procedure ***
                      *** Re-Reading the Fockian *** 
                      *** Removing any level shift *** 
ITER      Energy       Delta-E        Grad      Rot      Max-DP    RMS-DP
  0   -488.12141848 -488.1214184820  0.001979  0.001979  0.001839  0.000028
               *** Restarting incremental Fock matrix formation ***
  1   -488.12147701  -0.0000585272  0.000423  0.001185  0.001278  0.000015
  2   -488.12148164  -0.0000046315  0.000473  0.001088  0.000397  0.000006
  3   -488.12148385  -0.0000022077  0.000150  0.000539  0.000103  0.000002
  4   -488.12148404  -0.0000001889  0.000030  0.000084  0.000042  0.000001
  5   -488.12148406  -0.0000000212  0.000014  0.000023  0.000040  0.000000
  6   -488.12148405   0.0000000116  0.000003  0.000005  0.000006  0.000000
                  ***Gradient check signals convergence***
              ***Rediagonalizing the Fockian in SOSCF/NRSCF***

               *****************************************************
               *                     SUCCESS                       *
               *           SCF CONVERGED AFTER   7 CYCLES          *
               *****************************************************

Total Energy       :         -488.12148405 Eh          -13282.46085 eV
  Last Energy change         ...   -4.4008e-10  Tolerance :   1.0000e-08
  Last MAX-Density change    ...    1.7091e-05  Tolerance :   1.0000e-07
             **** THE GBW FILE WAS UPDATED (run.gbw) ****
             **** DENSITY run.scfp WAS UPDATED ****
             **** ENERGY FILE WAS UPDATED (run.en.tmp) ****
             **** THE GBW FILE WAS UPDATED (run.gbw) ****
             **** DENSITY run.scfp WAS UPDATED ****
Total SCF time: 0 days 0 hours 1 min 14 sec 

Maximum memory used throughout the entire SCF-calculation: 206.3 MB


-------------------------------------------------------------------------------
                          DFT DISPERSION CORRECTION                            
                                                                               
                              DFTD3 V3.1  Rev 1                                
                          USING Becke-Johnson damping                          
-------------------------------------------------------------------------------
-------------------------   ----------------
Dispersion correction           -0.004658668
-------------------------   ----------------


-------------------------   --------------------
FINAL SINGLE POINT ENERGY      -488.126142715066
-------------------------   --------------------

------------------------------------------------------------------------------
                         ORCA SCF GRADIENT CALCULATION
------------------------------------------------------------------------------

Gradient of the Kohn-Sham DFT energy:
Kohn-Sham wavefunction type      ... RKS
Hartree-Fock exchange scaling    ...    0.000
Number of operators              ...    1
Number of atoms                  ...    8
Basis set dimensions             ...  332
Integral neglect threshold       ... 2.5e-11
Integral primitive cutoff        ... 2.5e-12
SHARK Integral package           ... ON

Nuc. rep. gradient       (SHARK) ... done (  0.0 sec)
HCore & Overlap gradient (SHARK) ... done (  0.8 sec)
RI-J gradient            (SHARK) ... done ( 22.3 sec)
Exchange-correlation gradient    ... done
Dispersion correction            ... done

------------------
CARTESIAN GRADIENT
------------------

   1   Al  :    0.000085421    0.000195615    0.138087752
   2   H   :   -0.001183792   -0.002700074   -0.006889151
   3   H   :    0.001120534    0.002552197   -0.006977955
   4   H   :    0.012300073   -0.005457000   -0.000014738
   5   Al  :    0.000102016    0.000249171   -0.138073457
   6   H   :   -0.001178260   -0.002692711    0.006885658
   7   H   :    0.001100133    0.002500742    0.006996770
   8   H   :   -0.012346125    0.005352060   -0.000014880

Difference to translation invariance:
           :   -0.0000000000   -0.0000000000    0.0000000000

Difference to rotation invariance:
           :    0.0000000131   -0.0000000101   -0.0000009319

Norm of the cartesian gradient     ...    0.1967736025
RMS gradient                       ...    0.0401662434
MAX gradient                       ...    0.1380877520

-------
TIMINGS
-------

Total SCF gradient time            ...       49.973 sec

One electron gradient       ....       0.782 sec  (  1.6%)
RI-J Coulomb gradient       ....      22.340 sec  ( 44.7%)
XC gradient                 ....      26.299 sec  ( 52.6%)

Maximum memory used throughout the entire SCFGRAD-calculation: 203.2 MB
------------------------------------------------------------------------------
                         ORCA GEOMETRY RELAXATION STEP
------------------------------------------------------------------------------

Reading the OPT-File                    .... done
Getting information on internals        .... done
Copying old internal coords+grads       .... done
Making the new internal coordinates     .... (new redundants).... done
Validating the new internal coordinates .... (new redundants).... done
Calculating the B-matrix                .... done
Calculating the G,G- and P matrices     .... done
Transforming gradient to internals      .... done
Projecting the internal gradient        .... done
Number of atoms                         ....   8
Number of internal coordinates          ....  57
Current Energy                          ....  -488.126142715 Eh
Current gradient norm                   ....     0.196773602 Eh/bohr
Maximum allowed component of the step   ....  0.300
Current trust radius                    ....  0.300
Updating the Hessian (BFGS)             .... done
Forming the augmented Hessian           .... done
Diagonalizing the augmented Hessian     .... done
Last element of RFO vector              ....  0.852586181
Lowest eigenvalues of augmented Hessian:
 -0.049825711  0.036208022  0.053026057  0.066493336  0.068460983
[...]
Average number of points per batch           ...       63
Average number of grid points per atom       ...    16551

Building densities                               ... done   (      0.0 sec)
Calculating rho(r) on the grid                   ... done   (      4.2 sec)
Building xc-kernel on the grid                   ... done   (      0.4 sec)
                                                     done   (     10.0 sec)

Nuclear repulsion Hessian  (SHARK)               ... done   (      0.0 sec)

----------------------------------------------
Forming right-hand sides of CP-SCF equations     ...
----------------------------------------------
One electron integral derivatives  (SHARK)       ... done   (      0.9 sec)
Transforming the overlap derivative matrices     ... done   (      0.4 sec)
Making the Q(x) pseudodensities                  ... done   (      0.4 sec)
Adding the E*S(x)*S(y) terms to the Hessian      ... done   (      0.1 sec)
Calculating energy weighted overlap derivatives  ... done   (      0.0 sec)
Two electron integral derivatives (SHARK-RI)     ... done   (     55.6 sec)
Exchange-correlation integral derivatives        ... done   (    404.6 sec)
tr(F(y)Q(x)) contribution to the Hessian         ... done   (      0.0 sec)
Response fock operator R(S(x)) (SHARK-RI)        ... done   (     13.8 sec)
XC Response fock operator R(S(x))                ... done   (    119.9 sec)
tr(F(y)S(x)) contribution to the Hessian         ... done   (      0.0 sec)
Transforming and finalizing RHSs                 ... done   (      0.4 sec)

----------------------------------------------
Solving the CP-SCF equations (RI)                ...
----------------------------------------------
     CP-SCF ITERATION   0:   1.3885e-01 (  30.1 sec   0/ 24 done)
     CP-SCF ITERATION   1:   7.8679e-03 (  31.4 sec   0/ 24 done)
     CP-SCF ITERATION   2:   1.5607e-03 (  31.8 sec   0/ 24 done)
     CP-SCF ITERATION   3:   1.7961e-04 (  31.8 sec  10/ 24 done)
     CP-SCF ITERATION   4:   3.7106e-05 (  21.4 sec  24/ 24 done)
                    *** THE CP-SCF HAS CONVERGED ***

                                                 ... done   (    147.9 sec)
Forming perturbed density Hessian contributions  ... done   (      0.1 sec)
2nd integral derivative contribs (SHARK-RI)      ... done   (    175.8 sec)
Exchange-correlation Hessian                     ... done   (    172.5 sec)
Dispersion correction in the Hessian             ... done   (      3.2 sec)
Dipole derivatives                               ... (center of mass: -0.001110, -0.002710  1.953901)done   (      0.5 sec)

Total SCF Hessian time: 0 days 0 hours 18 min 28 sec 

Writing the Hessian file to the disk             ... done


Maximum memory used throughout the entire SCFHESS-calculation: 521.7 MB

-----------------------
VIBRATIONAL FREQUENCIES
-----------------------

Scaling factor for frequencies =  1.000000000  (already applied!)

   0:         0.00 cm**-1
   1:         0.00 cm**-1
   2:         0.00 cm**-1
   3:         0.00 cm**-1
   4:         0.00 cm**-1
   5:         0.00 cm**-1
   6:       195.08 cm**-1
   7:       365.76 cm**-1
   8:       407.02 cm**-1
   9:       453.19 cm**-1
  10:       468.32 cm**-1
  11:       601.31 cm**-1
  12:       679.83 cm**-1
  13:       711.98 cm**-1
  14:       718.40 cm**-1
  15:       785.79 cm**-1
  16:      1270.38 cm**-1
  17:      1371.72 cm**-1
  18:      1431.00 cm**-1
  19:      1482.33 cm**-1
  20:      1901.97 cm**-1
  21:      1906.65 cm**-1
  22:      1917.75 cm**-1
  23:      1925.34 cm**-1


------------
NORMAL MODES
------------

These modes are the Cartesian displacements weighted by the diagonal matrix
M(i,i)=1/sqrt(m[i]) where m[i] is the mass of the displaced atom
Thus, these vectors are normalized but *not* orthogonal

                  0          1          2          3          4          5    
      0       0.000000   0.000000   0.000000   0.000000   0.000000   0.000000
      1       0.000000   0.000000   0.000000   0.000000   0.000000   0.000000
      2       0.000000   0.000000   0.000000   0.000000   0.000000   0.000000
      3       0.000000   0.000000   0.000000   0.000000   0.000000   0.000000
      4       0.000000   0.000000   0.000000   0.000000   0.000000   0.000000
      5       0.000000   0.000000   0.000000   0.000000   0.000000   0.000000
      6       0.000000   0.000000   0.000000   0.000000   0.000000   0.000000
      7       0.000000   0.000000   0.000000   0.000000   0.000000   0.000000
      8       0.000000   0.000000   0.000000   0.000000   0.000000   0.000000
      9       0.000000   0.000000   0.000000   0.000000   0.000000   0.000000
     10       0.000000   0.000000   0.000000   0.000000   0.000000   0.000000
     11       0.000000   0.000000   0.000000   0.000000   0.000000   0.000000
     12       0.000000   0.000000   0.000000   0.000000   0.000000   0.000000
     13       0.000000   0.000000   0.000000   0.000000   0.000000   0.000000
     14       0.000000   0.000000   0.000000   0.000000   0.000000   0.000000
     15       0.000000   0.000000   0.000000   0.000000   0.000000   0.000000
     16       0.000000   0.000000   0.000000   0.000000   0.000000   0.000000
     17       0.000000   0.000000   0.000000   0.000000   0.000000   0.000000
     18       0.000000   0.000000   0.000000   0.000000   0.000000   0.000000
     19       0.000000   0.000000   0.000000   0.000000   0.000000   0.000000
     20       0.000000   0.000000   0.000000   0.000000   0.000000   0.000000
     21       0.000000   0.000000   0.000000   0.000000   0.000000   0.000000
     22       0.000000   0.000000   0.000000   0.000000   0.000000   0.000000
     23       0.000000   0.000000   0.000000   0.000000   0.000000   0.000000
                  6          7          8          9         10         11    
      0      -0.001374  -0.000095  -0.000466   0.023409  -0.054897  -0.029592
      1      -0.003131  -0.000233   0.000201   0.053197   0.024151   0.012970
      2      -0.001006   0.369555  -0.000000  -0.000061   0.000000   0.000000
      3       0.079524   0.010476   0.459755  -0.072232   0.447550   0.455483
      4       0.181353   0.023838  -0.201535  -0.163171  -0.196438  -0.199671
      5       0.406163   0.424633   0.000013  -0.465410  -0.000655   0.000003
      6       0.077483  -0.006351  -0.456100  -0.069799   0.452764   0.446105
      7       0.176752  -0.014523   0.199954  -0.157516  -0.198720  -0.195567
      8      -0.410936   0.403933  -0.000004   0.467424   0.000635  -0.000021
      9      -0.119937   0.124510   0.000003  -0.000002  -0.000002  -0.106240
     10      -0.274426  -0.059350  -0.000001  -0.000002  -0.000005   0.055429
     11      -0.000026   0.000001   0.000460  -0.000408   0.114185   0.000004
     12      -0.001373  -0.000082   0.000468  -0.023409   0.054897  -0.029593
     13      -0.003131  -0.000169  -0.000202  -0.053197  -0.024150   0.012970
     14       0.001005  -0.369555   0.000000  -0.000071  -0.000001   0.000002
     15       0.079542   0.010470  -0.459777   0.072261  -0.447550   0.455465
     16       0.181440   0.023913   0.201547   0.163284   0.196439  -0.199663
     17      -0.406120  -0.424614   0.000037  -0.465401  -0.000627  -0.000032
     18       0.077463  -0.006355   0.456076   0.069772  -0.452745   0.446139
     19       0.176661  -0.014454  -0.199942   0.157408   0.198711  -0.195582
     20       0.410967  -0.403949  -0.000028   0.467441   0.000662  -0.000007
     21      -0.120545  -0.128021   0.000002  -0.000000  -0.000000  -0.112700
     22      -0.274172   0.051342  -0.000002  -0.000003   0.000006   0.040692
     23      -0.000026  -0.000001  -0.000474  -0.000109  -0.114185   0.000004
                 12         13         14         15         16         17    
      0      -0.000066   0.000592  -0.000135  -0.011765   0.027995  -0.010678
      1      -0.000150  -0.000258  -0.000306  -0.026846  -0.012272   0.004682
      2      -0.033527  -0.000023  -0.037715   0.000029  -0.000001   0.000000
      3       0.090554   0.221798   0.093699   0.028878  -0.053878  -0.091212
      4       0.206550  -0.097096   0.214106   0.065937   0.023621   0.039980
      5       0.445204   0.000242   0.441913   0.194718   0.000004   0.000008
      6      -0.088408  -0.235249  -0.091178   0.028671  -0.052924  -0.091055
      7      -0.201704   0.102985  -0.208403   0.065569   0.023206   0.039912
      8       0.448685   0.000285   0.443105  -0.199931  -0.000002  -0.000003
      9      -0.000011   0.243607  -0.020544   0.255164  -0.644493  -0.000032
     10      -0.000022   0.562175   0.011533   0.588125   0.277292  -0.000058
     11       0.003545   0.000060   0.000001   0.000056   0.000040   0.692867
     12       0.000068   0.000591  -0.000135  -0.011765   0.027995   0.010678
     13       0.000159  -0.000257  -0.000311  -0.026846  -0.012273  -0.004682
     14      -0.033525   0.000023   0.037717  -0.000036  -0.000001  -0.000001
     15      -0.090564   0.221799   0.093717   0.028878  -0.053876   0.091208
     16      -0.206641  -0.097097   0.214203   0.065964   0.023623  -0.039979
     17       0.445144  -0.000254  -0.441862  -0.194669  -0.000002   0.000004
     18       0.088387  -0.235250  -0.091169   0.028670  -0.052924   0.091060
     19       0.201594   0.102984  -0.208325   0.065541   0.023204  -0.039913
     20       0.448700  -0.000276  -0.443200   0.199982   0.000003  -0.000008
     21      -0.000011  -0.248364   0.022721   0.259602  -0.640650   0.000038
     22      -0.000025  -0.560168  -0.006583   0.586094   0.286070   0.000056
     23       0.003547  -0.000060  -0.000000   0.000056   0.000035  -0.692863
                 18         19         20         21         22         23    
      0      -0.000042  -0.000041   0.000120  -0.000079   0.013195   0.013368
      1      -0.000093  -0.000090   0.000273  -0.000179   0.030105   0.030492
      2      -0.025309  -0.010094   0.014203  -0.016282  -0.000305  -0.000269
      3      -0.011555   0.003719   0.179708  -0.179943  -0.179977  -0.180058
      4      -0.026375   0.008476   0.409949  -0.410471  -0.410618  -0.410744
      5      -0.014015   0.002618  -0.212584   0.218623   0.226961   0.223859
      6       0.011524  -0.003639  -0.183096   0.182089  -0.178753  -0.179987
      7       0.026298  -0.008278  -0.417646   0.415332  -0.407794  -0.410548
      8      -0.013724   0.002258  -0.209794   0.214262  -0.218690  -0.216810
      9       0.000006   0.648416   0.000001   0.003579  -0.000003   0.002226
     10      -0.000069  -0.281564  -0.000006  -0.001674  -0.000001   0.005066
     11       0.705208   0.000013   0.042203  -0.000021  -0.000114   0.000007
     12       0.000042  -0.000040  -0.000127  -0.000093  -0.013204   0.013359
     13       0.000099  -0.000093  -0.000291  -0.000212  -0.030125   0.030472
     14      -0.025309   0.010094   0.014219   0.016267  -0.000329   0.000284
     15       0.011556   0.003725  -0.179798  -0.179572   0.180277  -0.180018
     16       0.026372   0.008476  -0.410125  -0.409594   0.411272  -0.410622
     17      -0.014011  -0.002616  -0.212796  -0.218275   0.227435  -0.223908
     18      -0.011523  -0.003633   0.183372   0.182090   0.178691  -0.179785
     19      -0.026301  -0.008279   0.418305   0.415364   0.407680  -0.410116
     20      -0.013728  -0.002260  -0.210016  -0.214172  -0.218516   0.216465
     21       0.000014  -0.646436  -0.000003  -0.003648   0.000002   0.002215
     22      -0.000073   0.286070  -0.000004   0.001512  -0.000003   0.005072
     23       0.705212  -0.000004   0.042203  -0.000021  -0.000103   0.000007


-----------
IR SPECTRUM
-----------

 Mode   freq       eps      Int      T**2         TX        TY        TZ
       cm**-1   L/(mol*cm) km/mol    a.u.
----------------------------------------------------------------------------
  6:    195.08   0.002303   11.64  0.003683  (-0.024355 -0.055589 -0.000007)
  7:    365.76   0.000000    0.00  0.000000  (-0.000257 -0.000586 -0.000000)
  8:    407.02   0.000000    0.00  0.000000  ( 0.000004 -0.000002  0.000085)
  9:    453.19   0.000001    0.00  0.000000  (-0.000000 -0.000000 -0.000682)
 10:    468.32   0.000000    0.00  0.000000  (-0.000002  0.000001 -0.000004)
 11:    601.31   0.044236  223.55  0.022957  (-0.138801  0.060758  0.000005)
 12:    679.83   0.106996  540.71  0.049114  ( 0.000006  0.000027 -0.221617)
 13:    711.98   0.000017    0.08  0.000007  ( 0.002484 -0.001081  0.000000)
 14:    718.40   0.000006    0.03  0.000003  (-0.000637 -0.001453  0.000005)
 15:    785.79   0.031183  157.59  0.012384  (-0.044683 -0.101917 -0.000020)
 16:   1270.38   0.049619  250.75  0.012189  ( 0.101113 -0.044328 -0.000009)
 17:   1371.72   0.000000    0.00  0.000000  (-0.000000  0.000000 -0.000001)
 18:   1431.00   0.180469  912.02  0.039355  ( 0.000001  0.000020 -0.198382)
 19:   1482.33   0.000001    0.00  0.000000  (-0.000150 -0.000341 -0.000001)
 20:   1901.97   0.024680  124.72  0.004049  (-0.000012 -0.000031  0.063634)
 21:   1906.65   0.000002    0.01  0.000000  (-0.000248 -0.000564 -0.000033)
 22:   1917.75   0.000008    0.04  0.000001  (-0.000014 -0.000032 -0.001162)
 23:   1925.34   0.067777  342.52  0.010985  ( 0.042084  0.095991  0.000025)

* The epsilon (eps) is given for a Dirac delta lineshape.
** The dipole moment derivative (T) already includes vibrational overlap.

The first frequency considered to be a vibration is 6
The total number of vibrations considered is 18


--------------------------
THERMOCHEMISTRY AT 298.15K
--------------------------

Temperature         ... 298.15 K
Pressure            ... 1.00 atm
Total Mass          ... 60.01 AMU

Throughout the following assumptions are being made:
  (1) The electronic state is orbitally nondegenerate
  (2) There are no thermally accessible electronically excited states
  (3) Hindered rotations indicated by low frequency modes are not
      treated as such but are treated as vibrations and this may
      cause some error
  (4) All equations used are the standard statistical mechanics
      equations for an ideal gas
  (5) All vibrations are strictly harmonic

freq.     195.08  E(vib)   ...       0.36 
freq.     365.76  E(vib)   ...       0.22 
freq.     407.02  E(vib)   ...       0.19 
freq.     453.19  E(vib)   ...       0.16 
freq.     468.32  E(vib)   ...       0.16 
freq.     601.31  E(vib)   ...       0.10 
freq.     679.83  E(vib)   ...       0.08 
freq.     711.98  E(vib)   ...       0.07 
freq.     718.40  E(vib)   ...       0.07 
freq.     785.79  E(vib)   ...       0.05 
freq.    1270.38  E(vib)   ...       0.01 
freq.    1371.72  E(vib)   ...       0.01 
freq.    1431.00  E(vib)   ...       0.00 
freq.    1482.33  E(vib)   ...       0.00 
freq.    1901.97  E(vib)   ...       0.00 
freq.    1906.65  E(vib)   ...       0.00 
freq.    1917.75  E(vib)   ...       0.00 
freq.    1925.34  E(vib)   ...       0.00 

------------
INNER ENERGY
------------

The inner energy is: U= E(el) + E(ZPE) + E(vib) + E(rot) + E(trans)
    E(el)   - is the total energy from the electronic structure calculation
              = E(kin-el) + E(nuc-el) + E(el-el) + E(nuc-nuc)
    E(ZPE)  - the the zero temperature vibrational energy from the frequency calculation
    E(vib)  - the the finite temperature correction to E(ZPE) due to population
              of excited vibrational states
    E(rot)  - is the rotational thermal energy
    E(trans)- is the translational thermal energy

Summary of contributions to the inner energy U:
Electronic energy                ...   -488.18602966 Eh
Zero point energy                ...      0.04235989 Eh      26.58 kcal/mol
Thermal vibrational correction   ...      0.00233763 Eh       1.47 kcal/mol
Thermal rotational correction    ...      0.00141627 Eh       0.89 kcal/mol
Thermal translational correction ...      0.00141627 Eh       0.89 kcal/mol
-----------------------------------------------------------------------
Total thermal energy                   -488.13849960 Eh


Summary of corrections to the electronic energy:
(perhaps to be used in another calculation)
Total thermal correction                  0.00517017 Eh       3.24 kcal/mol
Non-thermal (ZPE) correction              0.04235989 Eh      26.58 kcal/mol
-----------------------------------------------------------------------
Total correction                          0.04753006 Eh      29.83 kcal/mol


--------
ENTHALPY
--------

The enthalpy is H = U + kB*T
                kB is Boltzmann's constant
Total free energy                 ...   -488.13849960 Eh 
Thermal Enthalpy correction       ...      0.00094421 Eh       0.59 kcal/mol
-----------------------------------------------------------------------
Total Enthalpy                    ...   -488.13755539 Eh


Note: Rotational entropy computed according to Herzberg 
Infrared and Raman Spectra, Chapter V,1, Van Nostrand Reinhold, 1945 
Point Group:  C2v, Symmetry Number:   2  
Rotational constants in cm-1:     1.544563     0.152324     0.145139 

Vibrational entropy computed according to the QRRHO of S. Grimme
Chem.Eur.J. 2012 18 9955


-------
ENTROPY
-------

The entropy contributions are T*S = T*(S(el)+S(vib)+S(rot)+S(trans))
     S(el)   - electronic entropy
     S(vib)  - vibrational entropy
     S(rot)  - rotational entropy
     S(trans)- translational entropy
The entropies will be listed as multiplied by the temperature to get
units of energy

Electronic entropy                ...      0.00000000 Eh      0.00 kcal/mol
Vibrational entropy               ...      0.00352259 Eh      2.21 kcal/mol
Rotational entropy                ...      0.01045064 Eh      6.56 kcal/mol
Translational entropy             ...      0.01814806 Eh     11.39 kcal/mol
-----------------------------------------------------------------------
Final entropy term                ...      0.03212128 Eh     20.16 kcal/mol

In case the symmetry of your molecule has not been determined correctly
or in case you have a reason to use a different symmetry number we print 
out the resulting rotational entropy values for sn=1,12 :
 --------------------------------------------------------
|  sn= 1 | S(rot)=       0.01110509 Eh      6.97 kcal/mol|
|  sn= 2 | S(rot)=       0.01045064 Eh      6.56 kcal/mol|
|  sn= 3 | S(rot)=       0.01006780 Eh      6.32 kcal/mol|
|  sn= 4 | S(rot)=       0.00979618 Eh      6.15 kcal/mol|
|  sn= 5 | S(rot)=       0.00958549 Eh      6.01 kcal/mol|
|  sn= 6 | S(rot)=       0.00941335 Eh      5.91 kcal/mol|
|  sn= 7 | S(rot)=       0.00926780 Eh      5.82 kcal/mol|
|  sn= 8 | S(rot)=       0.00914172 Eh      5.74 kcal/mol|
|  sn= 9 | S(rot)=       0.00903051 Eh      5.67 kcal/mol|
|  sn=10 | S(rot)=       0.00893104 Eh      5.60 kcal/mol|
|  sn=11 | S(rot)=       0.00884104 Eh      5.55 kcal/mol|
|  sn=12 | S(rot)=       0.00875889 Eh      5.50 kcal/mol|
 --------------------------------------------------------


-------------------
GIBBS FREE ENERGY
-------------------

The Gibbs free energy is G = H - T*S

Total enthalpy                    ...   -488.13755539 Eh 
Total entropy correction          ...     -0.03212128 Eh    -20.16 kcal/mol
-----------------------------------------------------------------------
Final Gibbs free energy         ...   -488.16967667 Eh

For completeness - the Gibbs free energy minus the electronic energy
G-E(el)                           ...      0.01635299 Eh     10.26 kcal/mol


Timings for individual modules:

Sum of individual times         ...     2564.726 sec (=  42.745 min)
GTO integral calculation        ...       42.395 sec (=   0.707 min)   1.7 %
SCF iterations                  ...      822.684 sec (=  13.711 min)  32.1 %
SCF Gradient evaluation         ...      586.502 sec (=   9.775 min)  22.9 %
Geometry relaxation             ...        3.997 sec (=   0.067 min)   0.2 %
Analytical frequency calculation...     1109.148 sec (=  18.486 min)  43.2 %
                             ****ORCA TERMINATED NORMALLY****
TOTAL RUN TIME: 0 days 0 hours 42 minutes 52 seconds 23 msec
