
                                 *****************
                                 * O   R   C   A *
                                 *****************

                                            #,                                       
                                            ###                                      
                                            ####                                     
                                            #####                                    
                                            ######                                   
                                           ########,                                 
                                     ,,################,,,,,                         
                               ,,#################################,,                 
                          ,,##########################################,,             
                       ,#########################################, ''#####,          
                    ,#############################################,,   '####,        
                  ,##################################################,,,,####,       
                ,###########''''           ''''###############################       
              ,#####''   ,,,,##########,,,,          '''####'''          '####       
            ,##' ,,,,###########################,,,                        '##       
           ' ,,###''''                  '''############,,,                           
         ,,##''                                '''############,,,,        ,,,,,,###''
      ,#''                                            '''#######################'''  
     '                                                          ''''####''''         
             ,#######,   #######,   ,#######,      ##                                
            ,#'     '#,  ##    ##  ,#'     '#,    #''#        ,####,    ,#,          
            ##       ##  ##   ,#'  ##            #'  '#       #'       ,# #          
            ##       ##  #######   ##           ,######,      #####,      #          
            '#,     ,#'  ##    ##  '#,     ,#' ,#      #,     #,   #      #          
             '#######'   ##     ##  '#######'  #'      '#     '####' #    #          



                #########################################################
                #                        -***-                          #
                #          Department of theory and spectroscopy        #
                #                                                       #
                #                      Frank Neese                      #
                #                                                       #
                #     Directorship, Architecture, Infrastructure        #
                #                    SHARK, DRIVERS                     #
                #        Core code/Algorithms in most modules           #
                #                                                       #
                #        Max Planck Institute fuer Kohlenforschung      #
                #                Kaiser Wilhelm Platz 1                 #
                #                 D-45470 Muelheim/Ruhr                 #
                #                      Germany                          #
                #                                                       #
                #                  All rights reserved                  #
                #                        -***-                          #
                #########################################################


                         Program Version 6.1.0  -  RELEASE   -
                                (GIT: $679e74b$)
                          ($2025-06-10 18:02:51 +0200$)


 With contributions from (in alphabetic order):
[Max-Planck-Institut fuer Kohlenforschung]                               
  Daniel Aravena         : Magnetic Suceptibility                        
  Michael Atanasov       : Ab Initio Ligand Field Theory (pilot matlab implementation)
  Alexander A. Auer      : GIAO ZORA, VPT2 properties, NMR spectrum      
  Ute Becker             : All parallelization in ORCA, NUMFREQ, NUMCALC 
  Giovanni Bistoni       : ED, misc. LED, open-shell LED, HFLD           
  Dmytro Bykov           : pre 5.0 version of the SCF Hessian            
  Marcos Casanova-Páez   : Triplet and SCS-CIS(D). UHF-(DLPNO)-IP/EA/STEOM-CCSD. UHF-CVS-IP/STEOM-CCSD   
  Vijay G. Chilkuri      : MRCI spin determinant printing, contributions to CSF-ICE 
  Pauline Colinet        : FMM embedding                                 
  Dipayan Datta          : RHF DLPNO-CCSD density                        
  Achintya Kumar Dutta   : EOM-CC, STEOM-CC                              
  Nicolas Foglia         : Exact transition moments, OPA infrastructure, MCD improvements    
  Dmitry Ganyushin       : Spin-Orbit,Spin-Spin,Magnetic field MRCI      
  Miquel Garcia-Rates    : C-PCM and meta-GGA Hessian, CCSD/C-PCM, Gaussian charge scheme 
  Tiago L. C. Gouveia    : GS-ROHF, GS-ROCIS                             
  Yang Guo               : DLPNO-NEVPT2, F12-NEVPT2, CIM, IAO-localization        
  Andreas Hansen         : Spin unrestricted coupled pair/coupled cluster methods 
  Ingolf Harden          : AUTO-CI MPn and infrastructure                
  Benjamin Helmich-Paris : MC-RPA, TRAH-(SCF,CASSCF), AVAS, COSX integrals, SCF dyn. polar., MC-PDFT, srDFT 
  Lee Huntington         : MR-EOM, pCC                                   
  Robert Izsak           : Overlap fitted RIJCOSX, COSX-SCS-MP3, EOM     
  Riya Kayal             : Wick's Theorem for AUTO-CI, AUTO-CI UHF-CCSDT 
  Emily Kempfer          : AUTO-CI RHF CISDT and CCSDT, approximate NEVPT4
  Christian Kollmar      : KDIIS, OOCD, Brueckner-CCSD(T), CCSD density, CASPT2, CASPT2-K, improved NEVPT2 
  Axel Koslowski         : Symmetry handling                             
  Simone Kossmann        : meta-GGA functionals, TD-DFT gradient, OOMP2, (MP2 Hessian; deprecated post 5.0) 
  Lucas Lang             : DCDCAS, Hyperfine gauge corrections, ICE-SOC+SSC
  Marvin Lechner         : AUTO-CI (C++ implementation), FIC-MRCC        
  Spencer Leger          : CASSCF response                               
  Dagmar Lenk            : GEPOL surface, SMD, ORCA-2-JSON               
  Dimitrios Liakos       : Extrapolation schemes; Compound Job, Property file
  Dimitrios Manganas     : Further ROCIS development; embedding schemes. LFT, Crystal Embedding 
  Dimitrios Pantazis     : SARC Basis sets                               
  Anastasios Papadopoulos: AUTO-CI, single reference methods and gradients 
  Taras Petrenko         : pre 6.0 DFT Hessian and TD-DFT gradient,  ECA, NRVS 
  Petra Pikulova         : Analytic Raman intensities                    
  Peter Pinski           : DLPNO-MP2, DLPNO-MP2 Gradient                 
  Shashank Vittal Rao    : ES-AILFT, MagRelax                            
  Christoph Reimann      : Effective Core Potentials                     
  Marius Retegan         : Local ZFS, SOC                                
  Christoph Riplinger    : Optimizer, TS searches, QM/MM, DLPNO-CCSD(T), (RO)-DLPNO pert. Triples 
  Michael Roemelt        : Original ROCIS implementation, recursive CI coupling coefficients
  Masaaki Saitow         : Open-shell DLPNO-CCSD energy and density      
  Barbara Sandhoefer     : DKH picture change effects                    
  Yorick L. A. Schmerwitz: GMF and freeze-and-release deltaSCF, NEB S-IDPP initial path                    
  Kantharuban Sivalingam : CASSCF convergence/infrastructure, NEVPT2, NEVPT3, NEVPT4(SD), FIC-MRCI and CEPA variants
  Bernardo de Souza      : ESD, SOC TD-DFT                               
  Georgi L. Stoychev     : AutoAux, RI-MP2 NMR, DLPNO-MP2 response, X2C  
  Van Anh Tran           : RI-MP2 g-tensors                              
  Willem Van den Heuvel  : Paramagnetic NMR                              
  Zikuan Wang            : NOTCH, Electric field optimization            
  Frank Wennmohs         : Technical directorship and infrastructure     
  Hang Xu                : AUTO-CI-Response properties                   
                                                                         
[FACCTs GmbH]                                                            
  Markus Bursch, Nicolas Foglia, Miquel Garcia-Rates, Ingolf Harden, Hagen Neugebauer, Anastasios Papadopoulos, 
  Christoph Riplinger, Bernardo de Souza, Georgi L. Stoychev                                                    
                                                                 
  APM, various basis sets, CI-OPT, improved COSX, DLPNO-Multilevel,           
  DOCKER, DRACO, updates on ESD, Fragmentator, GOAT, IRC, LR-CPCM, L-BFGS, MBIS, meta-GGA TD-DFT gradient, ML-optimized integration grids, 
  MM, NACMEs, nearIR, NEB, NEB-TS, NL-DFT gradient (VV10), 2- and 3-layer-ONIOM, interface openCOSMO-RS, QMMM,   
  Crystal-QMMM, RESP, rigid body optimization, SF, symmetry and pop. for TD-DFT, various functionals, SOLVATOR                                   
                                                                         
[Other institutions]                                                     
  V. Asgeirsson          : NEB                                           
  Christoph Bannwarth    : sTDA-DFT, sTD-DFT, PBEh-3c, B97-3c, D3        
  Giovanni Bistoni       : ETS/NOCV, ADLD/ADEX, COVALED                  
  Martin Brehm           : Molecular dynamics                            
  Ronald Cardenas        : ETS/NOCV                                      
  Martina Colucci        : COVALED                                       
  Sebastian Ehlert       : rSCAN, r2SCAN, r2SCAN-3c, D4, dhf basis sets  
  Marvin Friede          : D4 for Fr, Ra, Ac-Lr                          
  Lars Goerigk           : TD-DFT with DH, B97 family of functionals     
  Stefan Grimme          : VdW corrections, initial TS optimization, DFT functionals, gCP, sTDA/sTD-DF 
  Waldemar Hujo          : DFT-NL                                        
  H. Jonsson             : NEB                                           
  Holger Kruse           : gCP                                           
  Marcel Mueller         : wB97X-3c, vDZP basis set                      
  Hagen Neugebauer       : wr2SCAN, Native XTB                           
  Gianluca Regni         : ADLD/ADEX                                     
  Tobias Risthaus        : pre 6.0 range-separated hybrid DFT and stability analysis
  Lukas Wittmann         : regularized MP2, r2SCAN double-hybrids, wr2SCAN        
                                                                         
We gratefully acknowledge several colleagues who have allowed us to      
interface, adapt or use parts of their codes:                            
  Ed Valeev, F. Pavosevic, A. Kumar             : LibInt (2-el integral package), F12 methods 
  Garnet Chan, S. Sharma, J. Yang, R. Olivares  : DMRG                   
  Ulf Ekstrom                                   : XCFun DFT Library      
  Mihaly Kallay                                 : mrcc  (arbitrary order and MRCC methods)
  Frank Weinhold                                : gennbo (NPA and NBO analysis)           
  Simon Mueller                                 : openCOSMO-RS                            
  Christopher J. Cramer and Donald G. Truhlar   : smd solvation model                     
  S Lehtola, MJT Oliveira, MAL Marques          : LibXC Library                           
  Liviu Ungur et al                             : ANISO software                          


 Your calculation uses the libint2 library for the computation of 2-el integrals
 For citations please refer to: http://libint.valeyev.net

 Your ORCA version has been built with support for libXC version: 7.0.0
 For citations please refer to: https://libxc.gitlab.io

 This ORCA versions uses:
   CBLAS   interface :  Fast vector & matrix operations
   LAPACKE interface :  Fast linear algebra routines
   SCALAPACK package :  Parallel linear algebra routines
   Shared memory     :  Shared parallel matrices
   BLAS/LAPACK       :  OpenBLAS 0.3.29  USE64BITINT DYNAMIC_ARCH NO_AFFINITY Bulldozer SINGLE_THREADED
        Core in use  :  Bulldozer
   Copyright (c) 2011-2014, The OpenBLAS Project


  ***********************************
  * Starting time: Wed Aug  6 13:25:01 2025
  * Host name:     chromium01
  * Process ID:    59667
  * Working dir.:  /local/scratch/mehlhorn/61707
  ***********************************



***************************************
The coordinates will be read from file: start.xyz
***************************************


Your calculation utilizes the atom-pairwise dispersion correction
with the Becke-Johnson damping scheme (D3BJ)


Warning: RI is on but no J-basis has been assigned. Assigning Def2/J (nothing to worry about!)
================================================================================

----- Orbital basis set information -----
Your calculation utilizes the basis: pc-1
   H, C-F              : F. Jensen, J. Chem. Phys. 115, 9113 (2001).
                         F. Jensen, J. Chem. Phys. 116, 7372 (2002).
                         F. Jensen, J. Chem. Phys. 117, 9234 (2002).
   Si-Cl               : F. Jensen, T. Helgaker, J. Chem. Phys. 121, 3463 (2004).
   He-B, Ne-Mg, Al, Ar : F. Jensen, J. Phys. Chem. A 111, 11198 (2007).
   K, Ca, Ga-Kr        : F. Jensen, J. Chem. Phys. 136, 094110 (2012).
   Sc-Zn               : F. Jensen, J. Chem. Phys. 138, 014107 (2013).

----- AuxJ basis set information -----
Your calculation utilizes the auxiliary basis: def2/J
   H-Rn: F. Weigend, Phys. Chem. Chem. Phys. 8, 1057 (2006).
   Fr-Lr: K. Eichkorn, F. Weigend, O. Treutler, R. Ahlrichs; Theor. Chem. Acc. 97, 119 (1997).

================================================================================
                                        WARNINGS
                       Please study these warnings very carefully!
================================================================================


WARNING: Geometry Optimization
  ===> : Switching off AutoStart
         For restart on a previous wavefunction, please use MOREAD

================================================================================
                                       INPUT FILE
================================================================================
NAME = run.inp
|  1> # Geometry optimization for (AlH3)n cluster
|  2> 
|  3> %pal nprocs 24  end
|  4> 
|  5> %geom MaxIter 500 end
|  6> 
|  7> 
|  8> ! PBE pc-1
|  9> ! RKS	# closed shell for AlH3
| 10> ! D3    #  dispersion correction
| 11> ! Freq 	# Frequency analysis to check the stabiltity of the structures
| 12> 
| 13> ! NoPop # population analysis not necessary	
| 14> 
| 15> ! DEFGRID3
| 16> ! TightSCF
| 17> ! TightOpt
| 18> 
| 19> ! SmallPrint
| 20> 
| 21> 
| 22> * xyzFile 0 1 start.xyz # only maingroup elements H and Al so there should be no net spin
| 23> 
| 24>                          ****END OF INPUT****
================================================================================

                       *****************************
                       * Geometry Optimization Run *
                       *****************************

Geometry optimization settings:
Update method            Update   .... BFGS
Choice of coordinates    CoordSys .... (2022) Redundant Internals
Initial Hessian          InHess   .... Almloef's Model
Max. no of cycles        MaxIter  .... 500

Convergence Tolerances:
Energy Change            TolE     ....  1.0000e-06 Eh
Max. Gradient            TolMAXG  ....  1.0000e-04 Eh/bohr
RMS Gradient             TolRMSG  ....  3.0000e-05 Eh/bohr
Max. Displacement        TolMAXD  ....  1.0000e-03 bohr
RMS Displacement         TolRMSD  ....  6.0000e-04 bohr
Strict Convergence                .... False

------------------------------------------------------------------------------
                        ORCA OPTIMIZATION COORDINATE SETUP
------------------------------------------------------------------------------

The optimization will be done in redundant internal coordinates (2022)
Making redundant internal coordinates   ...  (2022 redundants) done
Evaluating the initial hessian          ...  (Almloef) done
Evaluating the coordinates              ...  done
Calculating the B-matrix                .... done
Calculating the G-matrix                .... done
The number of degrees of freedom        ....    7

    -----------------------------------------------------------------
                    Redundant Internal Coordinates


    -----------------------------------------------------------------
         Definition                    Initial Value    Approx d2E/dq
    -----------------------------------------------------------------
      1. B(H   1,Al  0)                  1.5800         0.417105   
      2. B(H   2,Al  0)                  1.5800         0.417104   
      3. B(H   3,Al  0)                  1.5800         0.417091   
      4. A(H   1,Al  0,H   3)          109.4710         0.389918   
      5. A(H   2,Al  0,H   3)          109.4713         0.389918   
      6. A(H   1,Al  0,H   2)          109.4713         0.389920   
      7. I(H   1,H   3,H   2,Al  0)     54.7357         0.010000   
    -----------------------------------------------------------------

Number of atoms                         .... 4
Number of degrees of freedom            .... 7


         *************************************************************
         *                GEOMETRY OPTIMIZATION CYCLE   1            *
         *************************************************************
---------------------------------
CARTESIAN COORDINATES (ANGSTROEM)
---------------------------------
  Al    -1.674210    0.752870    0.000000
  H     -0.492910    0.386110    0.983060
  H     -1.197850    1.881510   -0.997820
  H     -2.095480   -0.530840   -0.819170

----------------------------
CARTESIAN COORDINATES (A.U.)
----------------------------
  NO LB      ZA    FRAG     MASS         X           Y           Z
   0 Al   13.0000    0    26.982   -3.163798    1.422718    0.000000
   1 H     1.0000    0     1.008   -0.931465    0.729642    1.857714
   2 H     1.0000    0     1.008   -2.263608    3.555539   -1.885607
   3 H     1.0000    0     1.008   -3.959883   -1.003142   -1.548007

--------------------------------
INTERNAL COORDINATES (ANGSTROEM)
--------------------------------
 Al     0   0   0     0.000000000000     0.00000000     0.00000000
 H      1   0   0     1.579996693414     0.00000000     0.00000000
 H      1   2   0     1.579997421390   109.47128475     0.00000000
 H      1   2   3     1.580006096792   109.47100711   120.00000499

---------------------------
INTERNAL COORDINATES (A.U.)
---------------------------
 Al     0   0   0     0.000000000000     0.00000000     0.00000000
 H      1   0   0     2.985761043054     0.00000000     0.00000000
 H      1   2   0     2.985762418729   109.47128475     0.00000000
 H      1   2   3     2.985778812863   109.47100711   120.00000499

---------------------
BASIS SET INFORMATION
---------------------
There are 2 groups of distinct atoms

 Group   1 Type Al  : 25s13p1d contracted to 4s3p1d pattern {8881/661/1}
 Group   2 Type H   : 4s1p contracted to 2s1p pattern {31/1}

Atom   0Al   basis set group =>   1
Atom   1H    basis set group =>   2
Atom   2H    basis set group =>   2
Atom   3H    basis set group =>   2
---------------------------------
AUXILIARY/J BASIS SET INFORMATION
---------------------------------
There are 2 groups of distinct atoms

 Group   1 Type Al  : 14s5p5d2f1g contracted to 8s4p3d1f1g pattern {71111111/2111/311/2/1}
 Group   2 Type H   : 5s2p1d contracted to 3s1p1d pattern {311/2/1}

Atom   0Al   basis set group =>   1
Atom   1H    basis set group =>   2
Atom   2H    basis set group =>   2
Atom   3H    basis set group =>   2


           ************************************************************
           *        Program running with 24 parallel MPI-processes    *
           *              working on a common directory               *
           ************************************************************
------------------------------------------------------------------------------
                             ORCA STARTUP CALCULATIONS
                           -- RI-GTO INTEGRALS CHOSEN --
------------------------------------------------------------------------------
------------------------------------------------------------------------------
                   ___                                                        
                  /   \      - P O W E R E D   B Y -                         
                 /     \                                                     
                 |  |  |   _    _      __       _____    __    __             
                 |  |  |  | |  | |    /  \     |  _  \  |  |  /  |          
                  \  \/   | |  | |   /    \    | | | |  |  | /  /          
                 / \  \   | |__| |  /  /\  \   | |_| |  |  |/  /          
                |  |  |   |  __  | /  /__\  \  |    /   |      \           
                |  |  |   | |  | | |   __   |  |    \   |  |\   \          
                \     /   | |  | | |  |  |  |  | |\  \  |  | \   \       
                 \___/    |_|  |_| |__|  |__|  |_| \__\ |__|  \__/        
                                                                              
                      - O R C A' S   B I G   F R I E N D -                    
                                      &                                       
                       - I N T E G R A L  F E E D E R -                       
                                                                              
 v1 FN, 2020, v2 2021, v3 2022-2024                                           
------------------------------------------------------------------------------


----------------------
SHARK INTEGRAL PACKAGE
----------------------

Number of atoms                             ...      4
Number of basis functions                   ...     33
Number of shells                            ...     17
Maximum angular momentum                    ...      2
Integral batch strategy                     ... SHARK/LIBINT Hybrid
RI-J (if used) integral strategy            ... SPLIT-RIJ (Revised 2003 algorithm where possible)
Printlevel                                  ...      1
Contraction scheme used                     ... SEGMENTED contraction
Prescreening option                         ... SCHWARTZ
   Thresh                                   ... 2.500e-11
   Tcut                                     ... 2.500e-12
   Tpresel                                  ... 2.500e-12 
Coulomb Range Separation                    ... NOT USED
Exchange Range Separation                   ... NOT USED
Multipole approximations                    ... NOT USED
Finite Nucleus Model                        ... NOT USED
CABS basis                                  ... NOT available
Auxiliary Coulomb fitting basis             ... AVAILABLE
   # of basis functions in Aux-J            ...     84
   # of shells in Aux-J                     ...     32
   Maximum angular momentum in Aux-J        ...      4
Auxiliary J/K fitting basis                 ... NOT available
Auxiliary Correlation fitting basis         ... NOT available
Auxiliary 'external' fitting basis          ... NOT available

Checking pre-screening integrals            ... done (  0.0 sec) Dimension = 17
   => SHARK Basis and OBASIS are compatible. Storing Pre-screening
Shell pair information
Shell pair cut-off parameter TPreSel        ...   2.5e-12
Total number of shell pairs                 ...       153
Shell pairs after pre-screening             ...       153
Total number of primitive shell pairs       ...      1608
Primitive shell pairs kept                  ...      1524
          la=0 lb=0:     55 shell pairs
          la=1 lb=0:     60 shell pairs
          la=1 lb=1:     21 shell pairs
          la=2 lb=0:     10 shell pairs
          la=2 lb=1:      6 shell pairs
          la=2 lb=2:      1 shell pairs

Checking whether 4 symmetric matrices of dimension 33 fit in memory
:Max Core in MB      =   4096.00
 MB in use           =      3.50
 MB left             =   4092.50
 MB needed           =      0.02
 Data fit in memory  = YES
Calculating RI/J V-Matrix + Cholesky decomp.... done (  0.1 sec)
Calculating Nuclear repulsion               ... done (  0.0 sec) ENN=     13.677260068536 Eh

Diagonalization of the overlap matrix:
Smallest eigenvalue                        ... 2.100e-02
Time for diagonalization                   ...    0.030 sec
Threshold for overlap eigenvalues          ... 1.000e-07
Number of eigenvalues below threshold      ... 0
Time for construction of square roots      ...    0.000 sec
Total time needed                          ...    0.032 sec

-------------------
DFT GRID GENERATION
-------------------

General Integration Accuracy     IntAcc      ... 4.959
Radial Grid Type                 RadialGrid  ... OptM3 with GC (2021)
Angular Grid (max. ang.)         AngularGrid ... 6 (Lebedev-590)
Angular grid pruning method      GridPruning ... 4 (adaptive)
Weight generation scheme         WeightScheme... mBecke (2022)
Basis function cutoff            BFCut       ... 1.0000e-11
Integration weight cutoff        WCut        ... 1.0000e-14
Partially contracted basis set               ... off
Rotationally invariant grid construction     ... off
Angular grids for H and He will be reduced by one unit

Total number of grid points                  ...    43722
Total number of batches                      ...      685
Average number of points per batch           ...       63
Average number of grid points per atom       ...    10930
Grids setup in   1.2 sec
Initializing property integral containers    ... done (  0.0 sec)

SHARK setup successfully completed in   1.6 seconds

Maximum memory used throughout the entire STARTUP-calculation: 13.1 MB


           ************************************************************
           *        Program running with 24 parallel MPI-processes    *
           *              working on a common directory               *
           ************************************************************
-------------------------------------------------------------------------------
                                 ORCA GUESS
                   Start orbitals & Density for SCF / CASSCF
-------------------------------------------------------------------------------

------------
SCF SETTINGS
------------
Hamiltonian:
 Density Functional     Method          .... DFT(GTOs)
 Exchange Functional    Exchange        .... PBE
   PBE kappa parameter   XKappa         ....  0.804000
   PBE mue parameter    XMuePBE         ....  0.219520
 Correlation Functional Correlation     .... PBE
   PBE beta parameter  CBetaPBE         ....  0.066725
 LDA part of GGA corr.  LDAOpt          .... PW91-LDA
 Gradients option       PostSCFGGA      .... off
   NL short-range parameter             ....  6.400000
 RI-approximation to the Coulomb term is turned on
   Number of AuxJ basis functions       .... 84


General Settings:
 Integral files         IntName         .... run
 Hartree-Fock type      HFTyp           .... RHF
 Total Charge           Charge          ....    0
 Multiplicity           Mult            ....    1
 Number of Electrons    NEL             ....   16
 Basis Dimension        Dim             ....   33
 Nuclear Repulsion      ENuc            ....     13.6772600685 Eh

Convergence Acceleration:
 AO-DIIS                CNVDIIS         .... on
   Start iteration      DIISMaxIt       ....    12
   Startup error        DIISStart       ....  0.200000
   # of expansion vecs  DIISMaxEq       ....     5
   Bias factor          DIISBfac        ....   1.050
   Max. coefficient     DIISMaxC        ....  10.000
 MO-DIIS                CNVKDIIS        .... off
 Trust-Rad. Augm. Hess. CNVTRAH         .... auto
   Auto Start mean grad. ratio tolernc. ....  1.125000
   Auto Start start iteration           ....    50
   Auto Start num. interpolation iter.  ....    10
   Max. Number of Micro iterations      ....    24
   Max. Number of Macro iterations      .... Maxiter - #DIIS iter
   Number of Davidson start vectors     ....     2
   Converg. threshold    (grad. norm)   ....   1.000e-05
   Grad. Scal. Fac. for Micro threshold ....   0.100
   Minimum threshold for Micro iter.    ....   1.000e-02
   NR start threshold (gradient norm)   ....   1.000e-04
   Initial trust radius                 ....   0.400
   Minimum AH scaling param. (alpha)    ....   1.000
   Maximum AH scaling param. (alpha)    .... 1000.000
   Quad. conv. algorithm                .... NR
   White noise on init. David. guess    .... on
   Maximum white noise                  ....   0.010
   Pseudo random numbers                .... off
   Inactive MOs                         .... canonical
   Orbital update algorithm             .... Taylor
   Preconditioner                       .... Diag
   Full preconditioner red. dimension   ....   250
 SOSCF                 CNVSOSCF           .... on
   Start iteration     SOSCFMaxIt         ....   150
   Startup grad/error  SOSCFStart         ....  0.003300
   Hessian update      SOSCFHessUp        .... L-BFGS
   Autom. constraints  SOSCFAutoConstrain .... off
 Level Shifting         CNVShift        .... on
   Level shift para.    LevelShift      ....    0.2500
   Turn off err/grad.   ShiftErr        ....    0.0010
 Zerner damping         CNVZerner       .... off
 Static damping         CNVDamp         .... on
   Fraction old density DampFac         ....    0.7000
   Max. Damping (<1)    DampMax         ....    0.9800
   Min. Damping (>=0)   DampMin         ....    0.0000
   Turn off err/grad.   DampErr         ....    0.1000

SCF Procedure:
 Maximum # iterations   MaxIter         ....   125
 SCF integral mode      SCFMode         .... Direct
   Integral package                     .... SHARK and LIBINT hybrid scheme
 Reset frequency        DirectResetFreq ....    20
 Integral Threshold     Thresh          ....  2.500e-11 Eh
 Primitive CutOff       TCut            ....  2.500e-12 Eh

Convergence Tolerance:
 Convergence Check Mode ConvCheckMode   .... Total+1el-Energy
 Convergence forced     ConvForced      .... 0
 Energy Change          TolE            ....  1.000e-08 Eh
 1-El. energy change                    ....  1.000e-05 Eh
 Orbital Gradient       TolG            ....  1.000e-05
 Orbital Rotation angle TolX            ....  1.000e-05
 DIIS Error             TolErr          ....  5.000e-07

------------------------------
INITIAL GUESS: MODEL POTENTIAL
------------------------------
Loading Hartree-Fock densities                     ... done
Calculating cut-offs                               ... done
Initializing the effective Hamiltonian             ... done
Setting up the integral package (SHARK)            ... done
Starting the Coulomb interaction                   ... done (   0.1 sec)
Making the grid                                    ... done (   0.0 sec)
Mapping shells                                     ... done
Starting the XC term evaluation                    ... done (   0.0 sec)
  promolecular density results
     # of electrons  =     15.998394627
     EX              =    -18.854504998
     EC              =     -0.531629697
     EX+EC           =    -19.386134694
Transforming the Hamiltonian                       ... done (   0.0 sec)
Diagonalizing the Hamiltonian                      ... done (   0.0 sec)
Back transforming the eigenvectors                 ... done (   0.1 sec)
Now organizing SCF variables                       ... done
                      ------------------
                      INITIAL GUESS DONE (   0.2 sec)
                      ------------------
             **** ENERGY FILE WAS UPDATED (run.en.tmp) ****
Finished Guess after   0.8 sec
Maximum memory used throughout the entire GUESS-calculation: 5.7 MB


           ************************************************************
           *        Program running with 24 parallel MPI-processes    *
           *              working on a common directory               *
           ************************************************************

-------------------------------------------------------------------------------------------
                                      ORCA LEAN-SCF
                              memory conserving SCF solver
-------------------------------------------------------------------------------------------

----------------------------------------D-I-I-S--------------------------------------------
Iteration    Energy (Eh)           Delta-E    RMSDP     MaxDP     DIISErr   Damp  Time(sec)
-------------------------------------------------------------------------------------------
               ***  Starting incremental Fock matrix formation  ***
    1    -243.9851631644322651     0.00e+00  1.89e-02  4.34e-02  7.71e-02  0.700   0.1
    2    -243.9978152093614199    -1.27e-02  1.72e-02  3.67e-02  5.21e-02  0.700   0.1
                               ***Turning on AO-DIIS***
    3    -244.0055533510397368    -7.74e-03  9.66e-03  1.80e-02  2.96e-02  0.700   0.1
    4    -244.0097239624639087    -4.17e-03  1.90e-02  3.40e-02  1.82e-02  0.000   0.1
    5    -244.0175082131426052    -7.78e-03  2.08e-03  4.09e-03  4.46e-03  0.000   0.1
                              *** Initializing SOSCF ***
---------------------------------------S-O-S-C-F--------------------------------------
Iteration    Energy (Eh)           Delta-E    RMSDP     MaxDP     MaxGrad    Time(sec)
--------------------------------------------------------------------------------------
    6    -244.0175956004536602    -8.74e-05  1.07e-03  1.91e-03  1.89e-03     0.1
               *** Restarting incremental Fock matrix formation ***
    7    -244.0176132563573788    -1.77e-05  1.39e-03  2.30e-03  6.69e-04     0.1
    8    -244.0176149419128251    -1.69e-06  4.72e-04  7.64e-04  5.03e-04     0.1
    9    -244.0176173558685946    -2.41e-06  8.00e-05  1.97e-04  3.16e-05     0.1
   10    -244.0176173651134945    -9.24e-09  2.92e-05  7.25e-05  2.01e-05     0.1
                 **** Energy Check signals convergence ****

               *****************************************************
               *                     SUCCESS                       *
               *           SCF CONVERGED AFTER  10 CYCLES          *
               *****************************************************

             **** ENERGY FILE WAS UPDATED (run.en.tmp) ****

----------------
TOTAL SCF ENERGY
----------------

Total Energy       :       -244.01761737121330 Eh           -6640.05694 eV

Components:
Nuclear Repulsion  :         13.67726006853554 Eh             372.17717 eV
Electronic Energy  :       -257.69487743974889 Eh           -7012.23411 eV
One Electron Energy:       -365.89865931148353 Eh           -9956.60870 eV
Two Electron Energy:        108.20378187173466 Eh            2944.37459 eV

Virial components:
Potential Energy   :       -487.79864810601362 Eh          -13273.67604 eV
Kinetic Energy     :        243.78103073480028 Eh            6633.61909 eV
Virial Ratio       :          2.00097048829312

DFT components:
N(Alpha)           :        8.000000017682 electrons
N(Beta)            :        8.000000017682 electrons
N(Total)           :       16.000000035365 electrons
E(X)               :      -19.030307127427 Eh       
E(C)               :       -0.532968362185 Eh       
E(XC)              :      -19.563275489612 Eh       

---------------
SCF CONVERGENCE
---------------

  Last Energy change         ...    9.2449e-09  Tolerance :   1.0000e-08
  Last MAX-Density change    ...    7.2495e-05  Tolerance :   1.0000e-07
  Last RMS-Density change    ...    2.9222e-05  Tolerance :   5.0000e-09
  Last DIIS Error            ...    1.8902e-03  Tolerance :   5.0000e-07
  Last Orbital Gradient      ...    2.0054e-05  Tolerance :   1.0000e-05
  Last Orbital Rotation      ...    2.5894e-05  Tolerance :   1.0000e-05


----------------
ORBITAL ENERGIES
----------------

  NO   OCC          E(Eh)            E(eV) 
   0   2.0000     -55.361913     -1506.4742 
   1   2.0000      -3.935533      -107.0913 
   2   2.0000      -2.543750       -69.2190 
   3   2.0000      -2.533678       -68.9449 
   4   2.0000      -2.533678       -68.9449 
   5   2.0000      -0.377966       -10.2850 
   6   2.0000      -0.257915        -7.0182 
   7   2.0000      -0.257915        -7.0182 
   8   0.0000      -0.130708        -3.5567 
   9   0.0000       0.019808         0.5390 
  10   0.0000       0.019808         0.5390 
  11   0.0000       0.068906         1.8750 
  12   0.0000       0.175791         4.7835 
  13   0.0000       0.180571         4.9136 
  14   0.0000       0.180571         4.9136 
  15   0.0000       0.204064         5.5529 
  16   0.0000       0.450111        12.2481 
  17   0.0000       0.450111        12.2482 
  18   0.0000       0.505829        13.7643 
*Only the first 10 virtual orbitals were printed.
-------
TIMINGS
-------

Total SCF time: 0 days 0 hours 0 min 1 sec 

Total time                  ....       1.516 sec
Sum of individual times     ....       1.400 sec  ( 92.4%)

SCF preparation             ....       0.593 sec  ( 39.1%)
Fock matrix formation       ....       0.603 sec  ( 39.7%)
  Startup                   ....       0.006 sec  (  1.1% of F)
  Split-RI-J                ....       0.127 sec  ( 21.0% of F)
  XC integration            ....       0.428 sec  ( 71.0% of F)
    XC Preparation          ....       0.000 sec  (  0.0% of XC)
    Basis function eval.    ....       0.062 sec  ( 14.4% of XC)
    Density eval.           ....       0.020 sec  (  4.7% of XC)
    XC-Functional eval.     ....       0.025 sec  (  5.9% of XC)
    XC-Potential eval.      ....       0.016 sec  (  3.6% of XC)
Diagonalization             ....       0.000 sec  (  0.0%)
Density matrix formation    ....       0.030 sec  (  2.0%)
Total Energy calculation    ....       0.021 sec  (  1.4%)
Population analysis         ....       0.000 sec  (  0.0%)
Orbital Transformation      ....       0.014 sec  (  0.9%)
Orbital Orthonormalization  ....       0.000 sec  (  0.0%)
DIIS solution               ....       0.091 sec  (  6.0%)
SOSCF solution              ....       0.048 sec  (  3.2%)
Finished LeanSCF after   1.5 sec

Maximum memory used throughout the entire LEANSCF-calculation: 4.2 MB


           ************************************************************
           *        Program running with 24 parallel MPI-processes    *
           *              working on a common directory               *
           ************************************************************

------------------------------------------------------------------------------
                         ORCA PROPERTY INTEGRAL CALCULATIONS
------------------------------------------------------------------------------

GBWName                                   ... run.gbw
Number of atoms                           ...      4
Number of basis functions                 ...     33
Max core memory                           ...   4096 MB

Dipole integrals                          ... YES
Quadrupole integrals                      ...  NO
Linear momentum integrals                 ...  NO
Angular momentum integrals                ...  NO
Higher moments length integrals           ...  NO
Higher moments velocity integrals         ...  NO
Kinetic energy integrals                  ...  NO
GIAO right hand sides                     ...  NO
GIAO dipole derivative integrals          ...  NO
SOC integrals                             ...  NO
EPR diamagnetic integrals (GIAO)          ...  NO
EPR gauge integrals                       ...  NO
Field gradient integrals                  ...  NO (   0 nuclei)
Spin-dipole/Fermi contact integrals       ...  NO (   0 nuclei)
Contact density integrals                 ...  NO (   0 nuclei)
Nucleus-orbit integrals                   ...  NO (   0 nuclei)
Geometric perturbations                   ...  NO (   4 nuclei)

Choice of electric origin   ... Center of mass
Position of electric origin ... ( -3.0853,  1.3896, -0.0529) 
Choice of magnetic origin   ... GIAO
Position of magnetic origin ... (  0.0000,  0.0000,  0.0000) 

Calculating integrals                     ... Electric Dipole (Length)     done (  0.0 sec)

Property integrals calculated in   0.0 sec

Maximum memory used throughout the entire PROPINT-calculation: 5.8 MB


-------------------------------------------------------------------------------
                          DFT DISPERSION CORRECTION                            
                                                                               
                              DFTD3 V3.1  Rev 1                                
                          USING Becke-Johnson damping                          
-------------------------------------------------------------------------------
The PBE functional is recognized
Active option DFTDOPT                   ...         4   

molecular C6(AA) [au] = 312.009398 


            DFT-D V3
 parameters
 s6 scaling factor         :     1.0000 
 a1 scaling factor         :     0.4289 
 s8 scaling factor         :     0.7875 
 a2 scaling factor         :     4.4407 
 ad hoc parameters k1-k3   :    16.0000     1.3333    -4.0000 

 Edisp/kcal,au: -0.691207518563  -0.001101509178 
 E6   /kcal   :  -0.460881109 
 E8   /kcal   :  -0.230326409 
 % E8         :  33.322324057 

-------------------------   ----------------
Dispersion correction           -0.001101509
-------------------------   ----------------


-------------------------   --------------------
FINAL SINGLE POINT ENERGY      -244.018718880391
-------------------------   --------------------



           ************************************************************
           *        Program running with 24 parallel MPI-processes    *
           *              working on a common directory               *
           ************************************************************
------------------------------------------------------------------------------
                         ORCA SCF GRADIENT CALCULATION
------------------------------------------------------------------------------

Nuc. rep. gradient        (SHARK) ... done (  0.0 sec)
HCore & Overlap gradient  (SHARK) ... done (  0.0 sec)
Split-RIJ-J gradient      (SHARK) ... done (  0.3 sec)
XC gradient                       ... done (  0.1 sec)
Dispersion correction             ... done (  0.1 sec)

-------------------
DISPERSION GRADIENT
-------------------

   1   Al  :    0.000008151   -0.000003441   -0.000005499
   2   H   :    0.000010372   -0.000002134    0.000023292
   3   H   :   -0.000001624    0.000023314   -0.000010417
   4   H   :   -0.000016899   -0.000017738   -0.000007377

Difference to translation invariance:
           :    0.0000000000    0.0000000000    0.0000000000

Difference to rotation invariance:
           :    0.0000000000    0.0000000000    0.0000000000

Norm of the Dispersion gradient    ...    0.0000455248
RMS gradient                       ...    0.0000131419
MAX gradient                       ...    0.0000233136

------------------
CARTESIAN GRADIENT
------------------

   1   Al  :   -0.032367792    0.013663116    0.021833360
   2   H   :    0.004065837   -0.002868289   -0.018300501
   3   H   :    0.010228176   -0.015939876   -0.000985061
   4   H   :    0.018073779    0.005145049   -0.002547797

Difference to translation invariance:
           :   -0.0000000000   -0.0000000000   -0.0000000000

Difference to rotation invariance:
           :   -0.0000000236   -0.0000001865   -0.0000002547

Norm of the Cartesian gradient     ...    0.0528205133
RMS gradient                       ...    0.0152479688
MAX gradient                       ...    0.0323677919

-------
TIMINGS
-------

Total SCF gradient time     ....        0.523 sec

Densities                   ....       0.000 sec  (  0.0%)
One electron gradient       ....       0.019 sec  (  3.6%)
RI-J Coulomb gradient       ....       0.292 sec  ( 55.9%)
XC gradient                 ....       0.084 sec  ( 16.1%)

Maximum memory used throughout the entire SCFGRAD-calculation: 25.5 MB
------------------------------------------------------------------------------
                         ORCA GEOMETRY RELAXATION STEP
------------------------------------------------------------------------------

Reading the OPT-File                    .... done
Getting information on internals        .... done
Copying old internal coords+grads       .... done
Making the new internal coordinates     .... (2022 redundants) done
Validating the new internal coordinates .... (2022 redundants) done
Calculating the B-matrix                .... done
Calculating the G,G- and P matrices     .... done
Transforming gradient to internals      .... done
Projecting the internal gradient        .... done
Number of atoms                         ....   4
Number of internal coordinates          ....   7
Current Energy                          ....  -244.018718880 Eh
Current gradient norm                   ....     0.052820513 Eh/bohr
Maximum allowed component of the step   ....  0.300
Current trust radius                    ....  0.300
Evaluating the initial hessian          ....  (Almloef) done
Projecting the Hessian                  .... done
Forming the augmented Hessian           .... done
Diagonalizing the augmented Hessian     .... done
Last element of RFO vector              ....  0.947420472
Lowest eigenvalues of augmented Hessian:
 -0.017710726  0.142624418  0.389918898  0.391446311  0.417095535
Length of the computed step             ....  0.337750065
Warning: the length of the step is outside the trust region - taking restricted step instead
The input lambda is                     ....     0.125898
   iter:   5  x=    0.119308  g=35339.016643 f(x)=    89.351491
   iter:  10  x=    0.071013  g=   84.135124 f(x)=     1.512092
   iter:  15  x=   -0.036283  g=    1.158000 f(x)=     0.004754
The output lambda is                    ....    -0.036447 (19 iterations)
The final length of the internal step   ....  0.300000000
Converting the step to Cartesian space:
 Initial RMS(Int)=    0.1133893419
Transforming coordinates:
 Iter   0:  RMS(Cart)=    0.0894758694 RMS(Int)=    0.1132972128
 Iter   5:  RMS(Cart)=    0.0000006776 RMS(Int)=    0.0000010306
done
Storing new coordinates                 .... done

                                .--------------------.
          ----------------------|Geometry convergence|-------------------------
          Item                value                   Tolerance       Converged
          ---------------------------------------------------------------------
          RMS gradient        0.0209201110            0.0000300000      NO
          MAX gradient        0.0398253180            0.0001000000      NO
          RMS step            0.1133893419            0.0006000000      NO
          MAX step            0.2438108752            0.0010000000      NO
          -------------------------------------------------------------------------
          ........................................................
          Max(Bonds)      0.0090      Max(Angles)    6.20
          Max(Dihed)        0.00      Max(Improp)   13.97
          ---------------------------------------------------------------------

The optimization has not yet converged - more geometry cycles are needed


    ---------------------------------------------------------------------------
                         Redundant Internal Coordinates
                            (Angstroem and degrees)

        Definition                    Value    dE/dq     Step     New-Value
    ----------------------------------------------------------------------------
     1. B(H   1,Al  0)                1.5800 -0.007681  0.0090    1.5890   
     2. B(H   2,Al  0)                1.5800 -0.007681  0.0090    1.5890   
     3. B(H   3,Al  0)                1.5800 -0.007678  0.0090    1.5890   
     4. A(H   1,Al  0,H   3)          109.47 -0.011948    5.44    114.91   
     5. A(H   2,Al  0,H   3)          109.47 -0.031860    6.20    115.67   
     6. A(H   1,Al  0,H   2)          109.47 -0.011947    5.44    114.91   
     7. I(H   1,H   3,H   2,Al  0)     54.74  0.039825  -13.97     40.77   
    ----------------------------------------------------------------------------

Geometry step timings:
Preparation and reading OPT file:      0.000 s ( 0.790 %)
Internal coordinates            :      0.000 s ( 0.632 %)
B/P matrices and projection     :      0.000 s ( 3.300 %)
Hessian update/contruction      :      0.000 s ( 4.031 %)
Making the step                 :      0.004 s (83.719 %)
Converting the step to Cartesian:      0.000 s ( 1.877 %)
Storing new data                :      0.000 s ( 1.047 %)
Checking convergence            :      0.000 s ( 0.889 %)
Final printing                  :      0.000 s ( 3.655 %)
Total time                      :      0.005 s

Time for energy+gradient        :      8.176 s
Time for complete geometry iter :      8.939 s

         *************************************************************
         *                GEOMETRY OPTIMIZATION CYCLE   2            *
         *************************************************************
---------------------------------
CARTESIAN COORDINATES (ANGSTROEM)
---------------------------------
  Al    -1.588749    0.716387   -0.063226
  H     -0.496026    0.391763    1.043736
  H     -1.220821    1.945841   -1.000168
  H     -2.154854   -0.564341   -0.814272

----------------------------
CARTESIAN COORDINATES (A.U.)
----------------------------
  NO LB      ZA    FRAG     MASS         X           Y           Z
   0 Al   13.0000    0    26.982   -3.002300    1.353774   -0.119480
   1 H     1.0000    0     1.008   -0.937354    0.740325    1.972375
   2 H     1.0000    0     1.008   -2.307017    3.677107   -1.890043
   3 H     1.0000    0     1.008   -4.072084   -1.066450   -1.538752

--------------------------------
INTERNAL COORDINATES (ANGSTROEM)
--------------------------------
 Al     0   0   0     0.000000000000     0.00000000     0.00000000
 H      1   0   0     1.588958097506     0.00000000     0.00000000
 H      1   2   0     1.588958598023   114.18150932     0.00000000
 H      1   2   3     1.588964834101   114.18130506   135.66344045

---------------------------
INTERNAL COORDINATES (A.U.)
---------------------------
 Al     0   0   0     0.000000000000     0.00000000     0.00000000
 H      1   0   0     3.002695642562     0.00000000     0.00000000
 H      1   2   0     3.002696588403   114.18150932     0.00000000
 H      1   2   3     3.002708372882   114.18130506   135.66344045



           ************************************************************
           *        Program running with 24 parallel MPI-processes    *
           *              working on a common directory               *
           ************************************************************
------------------------------------------------------------------------------
                   ___                                                        
                  /   \      - P O W E R E D   B Y -                         
                 /     \                                                     
                 |  |  |   _    _      __       _____    __    __             
                 |  |  |  | |  | |    /  \     |  _  \  |  |  /  |          
                  \  \/   | |  | |   /    \    | | | |  |  | /  /          
                 / \  \   | |__| |  /  /\  \   | |_| |  |  |/  /          
                |  |  |   |  __  | /  /__\  \  |    /   |      \           
                |  |  |   | |  | | |   __   |  |    \   |  |\   \          
                \     /   | |  | | |  |  |  |  | |\  \  |  | \   \       
                 \___/    |_|  |_| |__|  |__|  |_| \__\ |__|  \__/        
                                                                              
                      - O R C A' S   B I G   F R I E N D -                    
                                      &                                       
                       - I N T E G R A L  F E E D E R -                       
                                                                              
 v1 FN, 2020, v2 2021, v3 2022-2024                                           
------------------------------------------------------------------------------


----------------------
SHARK INTEGRAL PACKAGE
----------------------

Number of atoms                             ...      4
Number of basis functions                   ...     33
Number of shells                            ...     17
Maximum angular momentum                    ...      2
Integral batch strategy                     ... SHARK/LIBINT Hybrid
RI-J (if used) integral strategy            ... SPLIT-RIJ (Revised 2003 algorithm where possible)
Printlevel                                  ...      1
Contraction scheme used                     ... SEGMENTED contraction
Prescreening option                         ... SCHWARTZ
   Thresh                                   ... 2.500e-11
   Tcut                                     ... 2.500e-12
   Tpresel                                  ... 2.500e-12 
Coulomb Range Separation                    ... NOT USED
Exchange Range Separation                   ... NOT USED
Multipole approximations                    ... NOT USED
Finite Nucleus Model                        ... NOT USED
CABS basis                                  ... NOT available
Auxiliary Coulomb fitting basis             ... AVAILABLE
   # of basis functions in Aux-J            ...     84
   # of shells in Aux-J                     ...     32
   Maximum angular momentum in Aux-J        ...      4
Auxiliary J/K fitting basis                 ... NOT available
Auxiliary Correlation fitting basis         ... NOT available
Auxiliary 'external' fitting basis          ... NOT available

Checking pre-screening integrals            ... done (  0.0 sec) Dimension = 17
   => SHARK Basis and OBASIS are compatible. Storing Pre-screening
Shell pair information
Shell pair cut-off parameter TPreSel        ...   2.5e-12
Total number of shell pairs                 ...       153
Shell pairs after pre-screening             ...       153
Total number of primitive shell pairs       ...      1608
Primitive shell pairs kept                  ...      1521
          la=0 lb=0:     55 shell pairs
          la=1 lb=0:     60 shell pairs
          la=1 lb=1:     21 shell pairs
          la=2 lb=0:     10 shell pairs
          la=2 lb=1:      6 shell pairs
          la=2 lb=2:      1 shell pairs

Checking whether 4 symmetric matrices of dimension 33 fit in memory
:Max Core in MB      =   4096.00
 MB in use           =      3.51
 MB left             =   4092.49
 MB needed           =      0.02
 Data fit in memory  = YES
Calculating RI/J V-Matrix + Cholesky decomp.... done (  0.0 sec)
Calculating Nuclear repulsion               ... done (  0.0 sec) ENN=     13.582102853985 Eh

Diagonalization of the overlap matrix:
Smallest eigenvalue                        ... 2.605e-02
Time for diagonalization                   ...    0.001 sec
Threshold for overlap eigenvalues          ... 1.000e-07
Number of eigenvalues below threshold      ... 0
Time for construction of square roots      ...    0.000 sec
Total time needed                          ...    0.002 sec

-------------------
DFT GRID GENERATION
-------------------

General Integration Accuracy     IntAcc      ... 4.959
Radial Grid Type                 RadialGrid  ... OptM3 with GC (2021)
Angular Grid (max. ang.)         AngularGrid ... 6 (Lebedev-590)
Angular grid pruning method      GridPruning ... 4 (adaptive)
Weight generation scheme         WeightScheme... mBecke (2022)
Basis function cutoff            BFCut       ... 1.0000e-11
Integration weight cutoff        WCut        ... 1.0000e-14
Partially contracted basis set               ... off
Rotationally invariant grid construction     ... off
Angular grids for H and He will be reduced by one unit

Total number of grid points                  ...    43735
Total number of batches                      ...      686
Average number of points per batch           ...       63
Average number of grid points per atom       ...    10934
Grids setup in   1.1 sec
Initializing property integral containers    ... done (  0.0 sec)

SHARK setup successfully completed in   1.2 seconds

Maximum memory used throughout the entire STARTUP-calculation: 13.2 MB


           ************************************************************
           *        Program running with 24 parallel MPI-processes    *
           *              working on a common directory               *
           ************************************************************
Occupation numbers will be reassigned to an Aufbau configuration
             **** ENERGY FILE WAS UPDATED (run.en.tmp) ****
Finished Guess after   0.6 sec
Maximum memory used throughout the entire GUESS-calculation: 5.7 MB


           ************************************************************
           *        Program running with 24 parallel MPI-processes    *
           *              working on a common directory               *
           ************************************************************
----------------------------------------D-I-I-S--------------------------------------------
Iteration    Energy (Eh)           Delta-E    RMSDP     MaxDP     DIISErr   Damp  Time(sec)
-------------------------------------------------------------------------------------------
               ***  Starting incremental Fock matrix formation  ***
    1    -244.0306743004425698     0.00e+00  1.38e-03  1.78e-03  8.99e-03  0.700   0.1
    2    -244.0307799588051694    -1.06e-04  1.37e-03  1.79e-03  6.69e-03  0.700   0.1
                               ***Turning on AO-DIIS***
    3    -244.0308565999752091    -7.66e-05  1.08e-03  1.30e-03  4.59e-03  0.700   0.1
                              *** Initializing SOSCF ***
---------------------------------------S-O-S-C-F--------------------------------------
Iteration    Energy (Eh)           Delta-E    RMSDP     MaxDP     MaxGrad    Time(sec)
--------------------------------------------------------------------------------------
    4    -244.0309081468823251    -5.15e-05  2.73e-03  3.05e-03  3.22e-03     0.1
               *** Restarting incremental Fock matrix formation ***
    5    -244.0310244500291219    -1.16e-04  2.13e-04  3.38e-04  6.30e-05     0.1
    6    -244.0310245201159773    -7.01e-08  4.67e-05  5.82e-05  2.60e-05     0.1
    7    -244.0310245255272434    -5.41e-09  2.39e-05  3.78e-05  9.75e-06     0.1
                 **** Energy Check signals convergence ****

               *****************************************************
               *                     SUCCESS                       *
               *           SCF CONVERGED AFTER   7 CYCLES          *
               *****************************************************

             **** ENERGY FILE WAS UPDATED (run.en.tmp) ****

----------------
TOTAL SCF ENERGY
----------------

Total Energy       :       -244.03102452721782 Eh           -6640.42177 eV

Components:
Nuclear Repulsion  :         13.58210285398513 Eh             369.58781 eV
Electronic Energy  :       -257.61312738120296 Eh           -7010.00958 eV
One Electron Energy:       -365.71619885684987 Eh           -9951.64370 eV
Two Electron Energy:        108.10307147564693 Eh            2941.63412 eV

Virial components:
Potential Energy   :       -487.79097164788664 Eh          -13273.46715 eV
Kinetic Energy     :        243.75994712066878 Eh            6633.04538 eV
Virial Ratio       :          2.00111206705511

DFT components:
N(Alpha)           :        8.000000061178 electrons
N(Beta)            :        8.000000061178 electrons
N(Total)           :       16.000000122356 electrons
E(X)               :      -19.029117812124 Eh       
E(C)               :       -0.532473851192 Eh       
E(XC)              :      -19.561591663316 Eh       

---------------
SCF CONVERGENCE
---------------

  Last Energy change         ...    5.4113e-09  Tolerance :   1.0000e-08
  Last MAX-Density change    ...    3.7764e-05  Tolerance :   1.0000e-07
  Last RMS-Density change    ...    2.3877e-05  Tolerance :   5.0000e-09
  Last DIIS Error            ...    3.2177e-03  Tolerance :   5.0000e-07
  Last Orbital Gradient      ...    9.7496e-06  Tolerance :   1.0000e-05
  Last Orbital Rotation      ...    2.2587e-05  Tolerance :   1.0000e-05


Total SCF time: 0 days 0 hours 0 min 1 sec 
Finished LeanSCF after   1.2 sec

Maximum memory used throughout the entire LEANSCF-calculation: 4.3 MB


           ************************************************************
           *        Program running with 24 parallel MPI-processes    *
           *              working on a common directory               *
           ************************************************************

------------------------------------------------------------------------------
                         ORCA PROPERTY INTEGRAL CALCULATIONS
------------------------------------------------------------------------------

GBWName                                   ... run.gbw
Number of atoms                           ...      4
Number of basis functions                 ...     33
Max core memory                           ...   4096 MB

Dipole integrals                          ... YES
Quadrupole integrals                      ...  NO
Linear momentum integrals                 ...  NO
Angular momentum integrals                ...  NO
Higher moments length integrals           ...  NO
Higher moments velocity integrals         ...  NO
Kinetic energy integrals                  ...  NO
GIAO right hand sides                     ...  NO
GIAO dipole derivative integrals          ...  NO
SOC integrals                             ...  NO
EPR diamagnetic integrals (GIAO)          ...  NO
EPR gauge integrals                       ...  NO
Field gradient integrals                  ...  NO (   0 nuclei)
Spin-dipole/Fermi contact integrals       ...  NO (   0 nuclei)
Contact density integrals                 ...  NO (   0 nuclei)
Nucleus-orbit integrals                   ...  NO (   0 nuclei)
Geometric perturbations                   ...  NO (   4 nuclei)

Choice of electric origin   ... Center of mass
Position of electric origin ... ( -2.9455,  1.3299, -0.1564) 
Choice of magnetic origin   ... GIAO
Position of magnetic origin ... (  0.0000,  0.0000,  0.0000) 

Calculating integrals                     ... Electric Dipole (Length)     done (  0.0 sec)

Property integrals calculated in   0.0 sec

Maximum memory used throughout the entire PROPINT-calculation: 5.8 MB


-------------------------------------------------------------------------------
                          DFT DISPERSION CORRECTION                            
                                                                               
                              DFTD3 V3.1  Rev 1                                
                          USING Becke-Johnson damping                          
-------------------------------------------------------------------------------
-------------------------   ----------------
Dispersion correction           -0.001090829
-------------------------   ----------------


-------------------------   --------------------
FINAL SINGLE POINT ENERGY      -244.032115356533
-------------------------   --------------------



           ************************************************************
           *        Program running with 24 parallel MPI-processes    *
           *              working on a common directory               *
           ************************************************************
------------------------------------------------------------------------------
                         ORCA SCF GRADIENT CALCULATION
------------------------------------------------------------------------------

Nuc. rep. gradient        (SHARK) ... done (  0.0 sec)
HCore & Overlap gradient  (SHARK) ... done (  0.0 sec)
Split-RIJ-J gradient      (SHARK) ... done (  0.2 sec)
XC gradient                       ... done (  0.1 sec)
Dispersion correction             ... done (  0.1 sec)

-------------------
DISPERSION GRADIENT
-------------------

   1   Al  :    0.000006832   -0.000002871   -0.000004425
   2   H   :    0.000011324   -0.000002455    0.000023744
   3   H   :   -0.000001027    0.000024301   -0.000011262
   4   H   :   -0.000017130   -0.000018975   -0.000008057

Difference to translation invariance:
           :    0.0000000000    0.0000000000   -0.0000000000

Difference to rotation invariance:
           :   -0.0000000000   -0.0000000000   -0.0000000000

Norm of the Dispersion gradient    ...    0.0000470036
RMS gradient                       ...    0.0000135688
MAX gradient                       ...    0.0000243010

------------------
CARTESIAN GRADIENT
------------------

   1   Al  :   -0.025099781    0.010542599    0.016222502
   2   H   :    0.004777687   -0.002614980   -0.011302796
   3   H   :    0.008243756   -0.009116476   -0.002077825
   4   H   :    0.012078338    0.001188857   -0.002841881

Difference to translation invariance:
           :   -0.0000000000    0.0000000000   -0.0000000000

Difference to rotation invariance:
           :    0.0000003754   -0.0000001638    0.0000000322

Norm of the Cartesian gradient     ...    0.0383731094
RMS gradient                       ...    0.0110773625
MAX gradient                       ...    0.0250997812

-------
TIMINGS
-------

Total SCF gradient time     ....        0.430 sec

Densities                   ....       0.000 sec  (  0.0%)
One electron gradient       ....       0.014 sec  (  3.2%)
RI-J Coulomb gradient       ....       0.227 sec  ( 52.7%)
XC gradient                 ....       0.077 sec  ( 18.0%)

Maximum memory used throughout the entire SCFGRAD-calculation: 25.5 MB
------------------------------------------------------------------------------
                         ORCA GEOMETRY RELAXATION STEP
------------------------------------------------------------------------------

Reading the OPT-File                    .... done
Getting information on internals        .... done
Copying old internal coords+grads       .... done
Making the new internal coordinates     .... (2022 redundants) done
Validating the new internal coordinates .... (2022 redundants) done
Calculating the B-matrix                .... done
Calculating the G,G- and P matrices     .... done
Transforming gradient to internals      .... done
Projecting the internal gradient        .... done
Number of atoms                         ....   4
Number of internal coordinates          ....   7
Current Energy                          ....  -244.032115357 Eh
Current gradient norm                   ....     0.038373109 Eh/bohr
Maximum allowed component of the step   ....  0.300
Current trust radius                    ....  0.300
Updating the Hessian (BFGS)             .... done
Forming the augmented Hessian           .... done
Diagonalizing the augmented Hessian     .... done
Last element of RFO vector              ....  0.892220936
Lowest eigenvalues of augmented Hessian:
 -0.018086446  0.069391464  0.378672047  0.389918898  0.414948655
Length of the computed step             ....  0.506151719
Warning: the length of the step is outside the trust region - taking restricted step instead
The input lambda is                     ....     0.050603
   iter:   5  x=    0.044017  g=19153.560373 f(x)=    48.370547
   iter:  10  x=   -0.002594  g=   47.504121 f(x)=     0.798683
   iter:  15  x=   -0.066180  g=    1.532419 f(x)=     0.000440
The output lambda is                    ....    -0.066181 (18 iterations)
The final length of the internal step   ....  0.300000000
Converting the step to Cartesian space:
 Initial RMS(Int)=    0.1133893419
Transforming coordinates:
 Iter   0:  RMS(Cart)=    0.0837485332 RMS(Int)=    0.1135774138
 Iter   5:  RMS(Cart)=    0.0000008639 RMS(Int)=    0.0000012399
done
Storing new coordinates                 .... done
The predicted energy change is          ....    -0.008371192
Previously predicted energy change      ....    -0.009546367
Actually observed energy change         ....    -0.013396476
Ratio of predicted to observed change   ....     1.403306175
New trust radius                        ....     0.300000000

                                .--------------------.
          ----------------------|Geometry convergence|-------------------------
          Item                value                   Tolerance       Converged
          ---------------------------------------------------------------------
          Energy change      -0.0133964761            0.0000010000      NO
          RMS gradient        0.0139564769            0.0000300000      NO
          MAX gradient        0.0311938577            0.0001000000      NO
          RMS step            0.1133893419            0.0006000000      NO
          MAX step            0.2568065298            0.0010000000      NO
          -------------------------------------------------------------------------
          ........................................................
          Max(Bonds)      0.0083      Max(Angles)    5.57
          Max(Dihed)        0.00      Max(Improp)   14.71
          ---------------------------------------------------------------------

The optimization has not yet converged - more geometry cycles are needed


    ---------------------------------------------------------------------------
                         Redundant Internal Coordinates
                            (Angstroem and degrees)

        Definition                    Value    dE/dq     Step     New-Value
    ----------------------------------------------------------------------------
     1. B(H   1,Al  0)                1.5890 -0.004054  0.0083    1.5973   
     2. B(H   2,Al  0)                1.5890 -0.003920  0.0080    1.5970   
     3. B(H   3,Al  0)                1.5890 -0.003918  0.0080    1.5970   
     4. A(H   1,Al  0,H   3)          114.18 -0.005908    4.77    118.96   
     5. A(H   2,Al  0,H   3)          115.31 -0.016537    5.57    120.88   
     6. A(H   1,Al  0,H   2)          114.18 -0.005908    4.77    118.96   
     7. I(H   1,H   3,H   2,Al  0)     40.04  0.031194  -14.71     25.33   
    ----------------------------------------------------------------------------

Geometry step timings:
Preparation and reading OPT file:      0.000 s ( 3.465 %)
Internal coordinates            :      0.000 s ( 2.871 %)
B/P matrices and projection     :      0.000 s (19.307 %)
Hessian update/contruction      :      0.000 s (30.396 %)
Making the step                 :      0.000 s (12.871 %)
Converting the step to Cartesian:      0.000 s ( 4.455 %)
Storing new data                :      0.000 s ( 3.861 %)
Checking convergence            :      0.000 s ( 8.020 %)
Final printing                  :      0.000 s (14.554 %)
Total time                      :      0.001 s

Time for energy+gradient        :      6.381 s
Time for complete geometry iter :      7.092 s

         *************************************************************
         *                GEOMETRY OPTIMIZATION CYCLE   3            *
         *************************************************************
---------------------------------
CARTESIAN COORDINATES (ANGSTROEM)
---------------------------------
  Al    -1.500583    0.678719   -0.128847
  H     -0.508363    0.399886    1.091432
  H     -1.245323    1.996658   -0.993875
  H     -2.206181   -0.585614   -0.802640

----------------------------
CARTESIAN COORDINATES (A.U.)
----------------------------
  NO LB      ZA    FRAG     MASS         X           Y           Z
   0 Al   13.0000    0    26.982   -2.835690    1.282593   -0.243485
   1 H     1.0000    0     1.008   -0.960668    0.755675    2.062508
   2 H     1.0000    0     1.008   -2.353320    3.773138   -1.878152
   3 H     1.0000    0     1.008   -4.169077   -1.106650   -1.516771

--------------------------------
INTERNAL COORDINATES (ANGSTROEM)
--------------------------------
 Al     0   0   0     0.000000000000     0.00000000     0.00000000
 H      1   0   0     1.597287632498     0.00000000     0.00000000
 H      1   2   0     1.596995592839   117.29586661     0.00000000
 H      1   2   3     1.596998680194   117.29577544   153.33975218

---------------------------
INTERNAL COORDINATES (A.U.)
---------------------------
 Al     0   0   0     0.000000000000     0.00000000     0.00000000
 H      1   0   0     3.018436182521     0.00000000     0.00000000
 H      1   2   0     3.017884307545   117.29586661     0.00000000
 H      1   2   3     3.017890141801   117.29577544   153.33975218



           ************************************************************
           *        Program running with 24 parallel MPI-processes    *
           *              working on a common directory               *
           ************************************************************
------------------------------------------------------------------------------
                   ___                                                        
                  /   \      - P O W E R E D   B Y -                         
                 /     \                                                     
                 |  |  |   _    _      __       _____    __    __             
                 |  |  |  | |  | |    /  \     |  _  \  |  |  /  |          
                  \  \/   | |  | |   /    \    | | | |  |  | /  /          
                 / \  \   | |__| |  /  /\  \   | |_| |  |  |/  /          
                |  |  |   |  __  | /  /__\  \  |    /   |      \           
                |  |  |   | |  | | |   __   |  |    \   |  |\   \          
                \     /   | |  | | |  |  |  |  | |\  \  |  | \   \       
                 \___/    |_|  |_| |__|  |__|  |_| \__\ |__|  \__/        
                                                                              
                      - O R C A' S   B I G   F R I E N D -                    
                                      &                                       
                       - I N T E G R A L  F E E D E R -                       
                                                                              
 v1 FN, 2020, v2 2021, v3 2022-2024                                           
------------------------------------------------------------------------------


----------------------
SHARK INTEGRAL PACKAGE
----------------------

Number of atoms                             ...      4
Number of basis functions                   ...     33
Number of shells                            ...     17
Maximum angular momentum                    ...      2
Integral batch strategy                     ... SHARK/LIBINT Hybrid
RI-J (if used) integral strategy            ... SPLIT-RIJ (Revised 2003 algorithm where possible)
Printlevel                                  ...      1
Contraction scheme used                     ... SEGMENTED contraction
Prescreening option                         ... SCHWARTZ
   Thresh                                   ... 2.500e-11
   Tcut                                     ... 2.500e-12
   Tpresel                                  ... 2.500e-12 
Coulomb Range Separation                    ... NOT USED
Exchange Range Separation                   ... NOT USED
Multipole approximations                    ... NOT USED
Finite Nucleus Model                        ... NOT USED
CABS basis                                  ... NOT available
Auxiliary Coulomb fitting basis             ... AVAILABLE
   # of basis functions in Aux-J            ...     84
   # of shells in Aux-J                     ...     32
   Maximum angular momentum in Aux-J        ...      4
Auxiliary J/K fitting basis                 ... NOT available
Auxiliary Correlation fitting basis         ... NOT available
Auxiliary 'external' fitting basis          ... NOT available

Checking pre-screening integrals            ... done (  0.0 sec) Dimension = 17
   => SHARK Basis and OBASIS are compatible. Storing Pre-screening
Shell pair information
Shell pair cut-off parameter TPreSel        ...   2.5e-12
Total number of shell pairs                 ...       153
Shell pairs after pre-screening             ...       153
Total number of primitive shell pairs       ...      1608
Primitive shell pairs kept                  ...      1521
          la=0 lb=0:     55 shell pairs
          la=1 lb=0:     60 shell pairs
          la=1 lb=1:     21 shell pairs
          la=2 lb=0:     10 shell pairs
          la=2 lb=1:      6 shell pairs
          la=2 lb=2:      1 shell pairs

Checking whether 4 symmetric matrices of dimension 33 fit in memory
:Max Core in MB      =   4096.00
 MB in use           =      3.51
 MB left             =   4092.49
 MB needed           =      0.02
 Data fit in memory  = YES
Calculating RI/J V-Matrix + Cholesky decomp.... done (  0.0 sec)
Calculating Nuclear repulsion               ... done (  0.0 sec) ENN=     13.501743076165 Eh

Diagonalization of the overlap matrix:
Smallest eigenvalue                        ... 2.987e-02
Time for diagonalization                   ...    0.001 sec
Threshold for overlap eigenvalues          ... 1.000e-07
Number of eigenvalues below threshold      ... 0
Time for construction of square roots      ...    0.000 sec
Total time needed                          ...    0.002 sec

-------------------
DFT GRID GENERATION
-------------------

General Integration Accuracy     IntAcc      ... 4.959
Radial Grid Type                 RadialGrid  ... OptM3 with GC (2021)
Angular Grid (max. ang.)         AngularGrid ... 6 (Lebedev-590)
Angular grid pruning method      GridPruning ... 4 (adaptive)
Weight generation scheme         WeightScheme... mBecke (2022)
Basis function cutoff            BFCut       ... 1.0000e-11
Integration weight cutoff        WCut        ... 1.0000e-14
Partially contracted basis set               ... off
Rotationally invariant grid construction     ... off
Angular grids for H and He will be reduced by one unit

Total number of grid points                  ...    43730
Total number of batches                      ...      685
Average number of points per batch           ...       63
Average number of grid points per atom       ...    10932
Grids setup in   1.2 sec
Initializing property integral containers    ... done (  0.0 sec)

SHARK setup successfully completed in   1.4 seconds

Maximum memory used throughout the entire STARTUP-calculation: 13.2 MB


           ************************************************************
           *        Program running with 24 parallel MPI-processes    *
           *              working on a common directory               *
           ************************************************************
Occupation numbers will be reassigned to an Aufbau configuration
             **** ENERGY FILE WAS UPDATED (run.en.tmp) ****
Finished Guess after   0.6 sec
Maximum memory used throughout the entire GUESS-calculation: 5.7 MB


           ************************************************************
           *        Program running with 24 parallel MPI-processes    *
           *              working on a common directory               *
           ************************************************************
[...]
                                * REAL PERTURBATIONS *
                                **********************



-------------------
SHARK CP-SCF DRIVER
-------------------

Dimension of the orbital basis          ...     33
Dimension of the CPSCF-problem          ...    200
Number of operators                     ...      1
Max. number of iterations               ...    128
Convergence Tolerance                   ... 1.0e-04
Number of perturbations                 ...     12
Perturbation type                       ... REAL

----------------------------
POPLE LINEAR EQUATION SOLVER
----------------------------

  ITERATION   0:   ||err||_max =   1.2693e-01 (   0.1 sec   0/ 12 done)
  ITERATION   1:   ||err||_max =   5.4172e-03 (   0.0 sec   0/ 12 done)
  ITERATION   2:   ||err||_max =   7.5544e-04 (   0.0 sec   0/ 12 done)
  ITERATION   3:   ||err||_max =   5.1687e-05 (   0.0 sec  12/ 12 done)

CP-SCF equations solved in   0.2 sec
Response densities calculated in   0.0 sec

Maximum memory used throughout the entire SCFRESP-calculation: 5.1 MB


           ************************************************************
           *        Program running with 24 parallel MPI-processes    *
           *              working on a common directory               *
           ************************************************************

------------------------------------------------------------------------------
                              ORCA PROPERTY CALCULATIONS
------------------------------------------------------------------------------

GBWName                                 ... run.gbw
Number of atoms                         ...      4
Number of basis functions               ...     33
Max core memory                         ...   4096 MB

Electric properties:
Dipole moment                           ... YES
Quadrupole moment                       ...  NO
Static polarizability (Dipole/Dipole)   ...  NO
Static polarizability (Dipole/Quad.)    ...  NO
Static polarizability (Quad./Quad.)     ...  NO
Static polarizability (Velocity)        ...  NO
Static hyperpolarizability              ...  NO

Atomic electric properties:
Dipole moment                           ...  NO
Quadrupole moment                       ...  NO
Static polarizability                   ...  NO

Choice of electric origin               ... Center of mass
Position of electric origin             ...    -2.579703     1.176198    -0.393946

General magnetic properties:
Magnetizability                         ...  NO

EPR properties:
g-Tensor (aka g-matrix)                 ...  NO
Zero-Field splitting spin-orbit         ...  NO
Zero-field splitting spin-spin          ...  NO
Hyperfine couplings                     ...  NO (   0 nuclei)
Quadrupole couplings                    ...  NO (   0 nuclei)
Contact density                         ...  NO (   0 nuclei)

NMR properties:
Chemical shifts                         ...  NO (   0 nuclei)
Spin-rotation constants                 ...  NO (   0 nuclei)
Spin-spin couplings                     ...  NO (   0 nuclei,    0 pairs)

Choice of magnetic origin               ... GIAO
Position of magnetic origin             ...     0.000000     0.000000     0.000000

Properties with geometric perturbations:
SCF Hessian                             ... YES
IR spectrum                             ... YES
VCD spectrum                            ...  NO
X-ray spectroscopy properties:
SCF XES/XAS/RIXS spectra                ...  NO

SCF SOC stabilization energy            ...  NO
Diagonal Born-Oppenheimer correction    ...  NO

-------------
DIPOLE MOMENT
-------------

Method             : SCF
Type of density    : Electron Density
Multiplicity       :   1
Irrep              :   0
Energy             :  -244.0437714905265238 Eh
Basis              : AO
                                X                 Y                 Z
Electronic contribution:     -0.000049883       0.000032127       0.000107934
Nuclear contribution   :      0.000030492      -0.000019083      -0.000062609
                        -----------------------------------------
Total Dipole Moment    :     -0.000019390       0.000013045       0.000045325
                        -----------------------------------------
Magnitude (a.u.)       :      0.000050995
Magnitude (Debye)      :      0.000129619



--------------------
Rotational spectrum 
--------------------
 
Rotational constants in cm-1:             4.359140             4.359017             2.179539 
Rotational constants in MHz :        130683.733480        130680.039350         65340.943221 

Dipole components along the rotational axes: 
x,y,z [a.u.] :    -0.000026     0.000004     0.000043 
x,y,z [Debye]:    -0.000067     0.000010     0.000110 

 

Dipole moment calculation done in   0.0 sec 

-----------
SCF HESSIAN
-----------

Occupied/Occupied contributions to the Hessian:
   => Occupied/Occupied contributions              ... done (  0.0 sec)
Perturbed density contributions to the Hessian:
   => Perturbed density contributions              ... done (  0.0 sec)
Explicit contributions to the Hessian:
   => Nuclear repulsion Hessian                    ... done (  0.0 sec)
   => HCore and overlap Hessian                    ... done (  0.1 sec)
   => RI-J Hessian                                 ... done (  0.3 sec)
   => XC-Hessian                                   ... done (  0.3 sec)
   => Van der Waals-Hessian                        ... done (  0.2 sec)
   => Explicit contributions done
Dipole derivatives                                 ... done (  0.0 sec)
Mass weighting the Hessian           ... done
Calculating normal modes             ... done
Scaling frequencies                  ... done

-----------------------
VIBRATIONAL FREQUENCIES
-----------------------

Scaling factor for frequencies =  1.000000000  (already applied!)

     0:       0.00 cm**-1
     1:       0.00 cm**-1
     2:       0.00 cm**-1
     3:       0.00 cm**-1
     4:       0.00 cm**-1
     5:       0.00 cm**-1
     6:     679.58 cm**-1
     7:     765.58 cm**-1
     8:     765.58 cm**-1
     9:    1884.44 cm**-1
    10:    1897.35 cm**-1
    11:    1897.35 cm**-1


------------
NORMAL MODES
------------

These modes are the Cartesian displacements weighted by the diagonal matrix
M(i,i)=1/sqrt(m[i]) where m[i] is the mass of the displaced atom
Thus, these vectors are normalized but *not* orthogonal

                  0          1          2          3          4          5    
      0       0.000000   0.000000   0.000000   0.000000   0.000000   0.000000
      1       0.000000   0.000000   0.000000   0.000000   0.000000   0.000000
      2       0.000000   0.000000   0.000000   0.000000   0.000000   0.000000
      3       0.000000   0.000000   0.000000   0.000000   0.000000   0.000000
      4       0.000000   0.000000   0.000000   0.000000   0.000000   0.000000
      5       0.000000   0.000000   0.000000   0.000000   0.000000   0.000000
      6       0.000000   0.000000   0.000000   0.000000   0.000000   0.000000
      7       0.000000   0.000000   0.000000   0.000000   0.000000   0.000000
      8       0.000000   0.000000   0.000000   0.000000   0.000000   0.000000
      9       0.000000   0.000000   0.000000   0.000000   0.000000   0.000000
     10       0.000000   0.000000   0.000000   0.000000   0.000000   0.000000
     11       0.000000   0.000000   0.000000   0.000000   0.000000   0.000000
                  6          7          8          9         10         11    
      0       0.050460  -0.007849  -0.026402   0.000006  -0.016006   0.022927
      1      -0.021301   0.030725  -0.028159  -0.000010  -0.041785  -0.006587
      2      -0.034198  -0.030712  -0.021423   0.000017   0.002418   0.037935
      3      -0.450272  -0.191572   0.209537   0.298895   0.002053  -0.422604
      4       0.190002  -0.482840   0.589837  -0.075099  -0.016717   0.105884
      5       0.305138   0.018030  -0.058262   0.487826   0.013450  -0.689536
      6      -0.450242   0.178283   0.475161   0.024432   0.024461   0.026229
      7       0.190114   0.123437   0.262692   0.505311   0.608277   0.372394
      8       0.305086   0.186038   0.537541  -0.278827  -0.342949  -0.193350
      9      -0.450195   0.223397   0.022017  -0.323494   0.401933  -0.217333
     10       0.190063  -0.463036  -0.098776  -0.429944   0.526940  -0.301952
     11       0.305185   0.618022   0.094159  -0.209446   0.264762  -0.132548


-----------
IR SPECTRUM
-----------

 Mode   freq       eps      Int      T**2         TX        TY        TZ
       cm**-1   L/(mol*cm) km/mol    a.u.
----------------------------------------------------------------------------
  6:    679.58   0.065331  330.15  0.030000  ( 0.135354 -0.057133 -0.091734)
  7:    765.58   0.041800  211.24  0.017038  (-0.023204  0.090847 -0.090812)
  8:    765.58   0.041802  211.25  0.017039  (-0.078058 -0.083265 -0.063348)
  9:   1884.44   0.000000    0.00  0.000000  ( 0.000014 -0.000022  0.000034)
 10:   1897.35   0.054393  274.88  0.008946  (-0.033785 -0.088197  0.005103)
 11:   1897.35   0.054390  274.87  0.008946  ( 0.048388 -0.013905  0.080068)

* The epsilon (eps) is given for a Dirac delta lineshape.
** The dipole moment derivative (T) already includes vibrational overlap.

The first frequency considered to be a vibration is 6
The total number of vibrations considered is 6


--------------------------
THERMOCHEMISTRY AT 298.15K
--------------------------

Temperature         ...   298.15 K
Pressure            ...     1.00 atm
Total Mass          ...    30.01 AMU
Quasi RRHO          ...     True
Cut-Off Frequency   ...     1.00 cm^-1

Throughout the following assumptions are being made:
  (1) The electronic state is orbitally nondegenerate
  (2) There are no thermally accessible electronically excited states
  (3) Hindered rotations indicated by low frequency modes are not
      treated as such but are treated as vibrations and this may
      cause some error
  (4) All equations used are the standard statistical mechanics
      equations for an ideal gas
  (5) All vibrations are strictly harmonic

freq.     679.58  E(vib)   ...       0.08 
freq.     765.58  E(vib)   ...       0.06 
freq.     765.58  E(vib)   ...       0.06 
freq.    1884.44  E(vib)   ...       0.00 
freq.    1897.35  E(vib)   ...       0.00 
freq.    1897.35  E(vib)   ...       0.00 

------------
INNER ENERGY
------------

The inner energy is: U= E(el) + E(ZPE) + E(vib) + E(rot) + E(trans)
    E(el)   - is the total energy from the electronic structure calculation
              = E(kin-el) + E(nuc-el) + E(el-el) + E(nuc-nuc)
    E(ZPE)  - the the zero temperature vibrational energy from the frequency calculation
    E(vib)  - the the finite temperature correction to E(ZPE) due to population
              of excited vibrational states
    E(rot)  - is the rotational thermal energy
    E(trans)- is the translational thermal energy

Summary of contributions to the inner energy U:
Electronic energy                ...   -244.04485058 Eh
Zero point energy                ...      0.01797446 Eh      11.28 kcal/mol
Thermal vibrational correction   ...      0.00030182 Eh       0.19 kcal/mol
Thermal rotational correction    ...      0.00141627 Eh       0.89 kcal/mol
Thermal translational correction ...      0.00141627 Eh       0.89 kcal/mol
-----------------------------------------------------------------------
Total thermal energy                   -244.02374174 Eh


Summary of corrections to the electronic energy:
(perhaps to be used in another calculation)
Total thermal correction                  0.00313437 Eh       1.97 kcal/mol
Non-thermal (ZPE) correction              0.01797446 Eh      11.28 kcal/mol
-----------------------------------------------------------------------
Total correction                          0.02110883 Eh      13.25 kcal/mol


--------
ENTHALPY
--------

The enthalpy is H = U + kB*T
                kB is Boltzmann's constant
Total thermal energy              ...   -244.02374174 Eh 
Thermal Enthalpy correction       ...      0.00094421 Eh       0.59 kcal/mol
-----------------------------------------------------------------------
Total Enthalpy                    ...   -244.02279753 Eh


Note: Rotational entropy computed according to Herzberg 
Infrared and Raman Spectra, Chapter V,1, Van Nostrand Reinhold, 1945 
Point Group:  D3h, Symmetry Number:   6  
Rotational constants in cm-1:     4.359144     4.359021     2.179541 

Vibrational entropy computed according to the QRRHO of S. Grimme
Chem.Eur.J. 2012 18 9955 using a reference frequency of 100.0 cm-1


-------
ENTROPY
-------

The entropy contributions are T*S = T*(S(el)+S(vib)+S(rot)+S(trans))
     S(el)   - electronic entropy
     S(vib)  - vibrational entropy
     S(rot)  - rotational entropy
     S(trans)- translational entropy
The entropies will be listed as multiplied by the temperature to get
units of energy

Electronic entropy                ...      0.00000000 Eh      0.00 kcal/mol
Vibrational entropy               ...      0.00038620 Eh      0.24 kcal/mol
Rotational entropy                ...      0.00606117 Eh      3.80 kcal/mol
Translational entropy             ...      0.01716637 Eh     10.77 kcal/mol
-----------------------------------------------------------------------
Final entropy term                ...      0.02361375 Eh     14.82 kcal/mol

In case the symmetry of your molecule has not been determined correctly
or in case you have a reason to use a different symmetry number we print 
out the resulting rotational entropy values for sn=1,12:

 non-linear molecules -----------------------------------
|  sn= 1 | S(rot)=       0.00775292 Eh      4.87 kcal/mol|
|  sn= 2 | S(rot)=       0.00709846 Eh      4.45 kcal/mol|
|  sn= 3 | S(rot)=       0.00671563 Eh      4.21 kcal/mol|
|  sn= 4 | S(rot)=       0.00644400 Eh      4.04 kcal/mol|
|  sn= 5 | S(rot)=       0.00623332 Eh      3.91 kcal/mol|
|  sn= 6 | S(rot)=       0.00606117 Eh      3.80 kcal/mol|
|  sn= 7 | S(rot)=       0.00591563 Eh      3.71 kcal/mol|
|  sn= 8 | S(rot)=       0.00578955 Eh      3.63 kcal/mol|
|  sn= 9 | S(rot)=       0.00567834 Eh      3.56 kcal/mol|
|  sn=10 | S(rot)=       0.00557886 Eh      3.50 kcal/mol|
|  sn=11 | S(rot)=       0.00548887 Eh      3.44 kcal/mol|
|  sn=12 | S(rot)=       0.00540671 Eh      3.39 kcal/mol|
 linear molecules ---------------------------------------
|  Dinfh | S(rot)=       0.00459018 Eh      2.88 kcal/mol|
|  Cinfv | S(rot)=       0.00524464 Eh      3.29 kcal/mol|
 --------------------------------------------------------


-------------------
GIBBS FREE ENERGY
-------------------

The Gibbs free energy is G = H - T*S

Total enthalpy                    ...   -244.02279753 Eh 
Total entropy correction          ...     -0.02361375 Eh    -14.82 kcal/mol
-----------------------------------------------------------------------
Final Gibbs free energy         ...   -244.04641128 Eh

For completeness - the Gibbs free energy minus the electronic energy
G-E(el)                           ...     -0.00156071 Eh     -0.98 kcal/mol


Maximum memory used throughout the entire PROP-calculation: 25.6 MB

--------------------------------
SUGGESTED CITATIONS FOR THIS RUN
--------------------------------

Below you find a list of papers that are relevant to this ORCA run
We neither can nor want to force you to cite these papers, but we appreciate if you do
You receive ORCA, which is the product of decades of hard work by many enthusiastic individuals, for free
The only thing we kindly ask in return is that you cite our papers,
We deeply appreciate it, if you show your appreciation for ORCA by not just citing the generic ORCA reference.

Please note that relegating all ORCA citations to the supporting information does *not* help us.
SI sections are not indexed - citations you put there will not count into any citation statistics
But we need these citations in order to attract the funding resources that allow us to do what we are doing

Therefore, if you are a happy ORCA user, please consider citing a few of the papers listed below in the main body of your paper

In addition to the list printed below, the program has created the file run.bibtex that contains the list in bibtex format
You can import this file easily into all common literature databanks and citation aid programs


List of essential papers. We consider these as the minimum necessary citations

  1. Neese, F.
     Software update: the ORCA program system, version 6.0
     WIRES Comput. Molec. Sci. 2025 15(1), e70019
     doi.org/10.1002/wcms.7019

List of papers to cite with high priority. The work reported in these papers was absolutely
necessary for this run to complete.
Our perspective: the developers of density functionals and basis sets usually get cited in chemistry papers
Good! But without the algorithms to do something with them, the functionals or basis sets would not do anything.
Hence, in our opinion, the algorithm design and method developments papers are equally worthy of getting cited

  1. Neese, F.
     An improvement of the resolution of the identity approximation for the formation of the Coulomb matrix
     J. Comp. Chem. 2003 24(14), 1740-1747
     doi.org/10.1002/jcc.10318
  2. Grimme, S.; Antony, J.; Ehrlich, S.; Krieg, H.
     A consistent and accurate ab initio parametrization of density functional dispersion correction (DFT-D) for the 94 elements H-Pu
     J. Chem. Phys. 2010 132 , 154104
     doi.org/10.1063/1.3382344
  3. Grimme, S.; Ehrlich, S.; Goerigk, L.
     Effect of the damping function in dispersion corrected density functional theory
     J. Comput. Chem. 2011 32(7), 1456-1465
     doi.org/10.1002/jcc.21759
  4. Bykov, D.; Petrenko, T.; Izsak, R.; Kossmann, S.; Becker, U.; Valeev, E.; Neese, F.
     Efficient implementation of the analytic second derivatives of Hartree-Fock and hybrid DFT energies: a detailed analysis of different approximations
     Molec. Phys. 2015 113 , 1961-1977
     doi.org/10.1080/00268976.2015.1025114
  5. Neese, F.
     The SHARK Integral Generation and Digestion System
     J. Comp. Chem. 2022 44(3), 381
     doi.org/10.1002/jcc.26942

List of suggested additional citations. These are papers that are important in the 'surrounding' of 
of this run, or papers that preceded the highly important papers. If you like your results we are grateful for a citation.

  1. Neese, F.
     The ORCA program system
     WIRES Comput. Molec. Sci. 2012 2(1), 73-78
     doi.org/10.1002/wcms.81
  2. Neese, F.
     Software update: the ORCA program system, version 4.0
     WIRES Comput. Molec. Sci. 2018 8(1), 1-6
     doi.org/10.1002/wcms.1327
  3. Neese, F.; Wennmohs, F.; Becker, U.; Riplinger, C.
     The ORCA quantum chemistry program package
     J. Chem. Phys. 2020 152(22), 224108
     doi.org/10.1063/5.0004608
  4. Neese, F.
     Software update: The ORCA program system—Version 5.0
     WIRES Comput. Molec. Sci. 2022 12(1), e1606
     doi.org/10.1002/wcms.1606

List of optional additional citations

  1. Neese, F.
     Approximate second-order SCF convergence for spin unrestricted wavefunctions
     Chem. Phys. Lett. 2000 325(1-3), 93-98
     doi.org/10.1016/s0009-2614(00)00662-x

Timings for individual modules:

Sum of individual times          ...       78.526 sec (=   1.309 min)
Startup calculation              ...       25.195 sec (=   0.420 min)  32.1 %
SCF iterations                   ...       25.934 sec (=   0.432 min)  33.0 %
Property integrals               ...       10.212 sec (=   0.170 min)  13.0 %
SCF Response                     ...        1.119 sec (=   0.019 min)   1.4 %
Property calculations            ...        1.858 sec (=   0.031 min)   2.4 %
SCF Gradient evaluation          ...       14.121 sec (=   0.235 min)  18.0 %
Geometry relaxation              ...        0.086 sec (=   0.001 min)   0.1 %
                             ****ORCA TERMINATED NORMALLY****
TOTAL RUN TIME: 0 days 0 hours 1 minutes 29 seconds 52 msec
