
                                 *****************
                                 * O   R   C   A *
                                 *****************

                                            #,                                       
                                            ###                                      
                                            ####                                     
                                            #####                                    
                                            ######                                   
                                           ########,                                 
                                     ,,################,,,,,                         
                               ,,#################################,,                 
                          ,,##########################################,,             
                       ,#########################################, ''#####,          
                    ,#############################################,,   '####,        
                  ,##################################################,,,,####,       
                ,###########''''           ''''###############################       
              ,#####''   ,,,,##########,,,,          '''####'''          '####       
            ,##' ,,,,###########################,,,                        '##       
           ' ,,###''''                  '''############,,,                           
         ,,##''                                '''############,,,,        ,,,,,,###''
      ,#''                                            '''#######################'''  
     '                                                          ''''####''''         
             ,#######,   #######,   ,#######,      ##                                
            ,#'     '#,  ##    ##  ,#'     '#,    #''#        ,####,    ,#,          
            ##       ##  ##   ,#'  ##            #'  '#       #'       ,# #          
            ##       ##  #######   ##           ,######,      #####,      #          
            '#,     ,#'  ##    ##  '#,     ,#' ,#      #,     #,   #      #          
             '#######'   ##     ##  '#######'  #'      '#     '####' #    #          



                #########################################################
                #                        -***-                          #
                #          Department of theory and spectroscopy        #
                #                                                       #
                #                      Frank Neese                      #
                #                                                       #
                #     Directorship, Architecture, Infrastructure        #
                #                    SHARK, DRIVERS                     #
                #        Core code/Algorithms in most modules           #
                #                                                       #
                #        Max Planck Institute fuer Kohlenforschung      #
                #                Kaiser Wilhelm Platz 1                 #
                #                 D-45470 Muelheim/Ruhr                 #
                #                      Germany                          #
                #                                                       #
                #                  All rights reserved                  #
                #                        -***-                          #
                #########################################################


                         Program Version 6.1.0  -  RELEASE   -
                                (GIT: $679e74b$)
                          ($2025-06-10 18:02:51 +0200$)


 With contributions from (in alphabetic order):
[Max-Planck-Institut fuer Kohlenforschung]                               
  Daniel Aravena         : Magnetic Suceptibility                        
  Michael Atanasov       : Ab Initio Ligand Field Theory (pilot matlab implementation)
  Alexander A. Auer      : GIAO ZORA, VPT2 properties, NMR spectrum      
  Ute Becker             : All parallelization in ORCA, NUMFREQ, NUMCALC 
  Giovanni Bistoni       : ED, misc. LED, open-shell LED, HFLD           
  Dmytro Bykov           : pre 5.0 version of the SCF Hessian            
  Marcos Casanova-Páez   : Triplet and SCS-CIS(D). UHF-(DLPNO)-IP/EA/STEOM-CCSD. UHF-CVS-IP/STEOM-CCSD   
  Vijay G. Chilkuri      : MRCI spin determinant printing, contributions to CSF-ICE 
  Pauline Colinet        : FMM embedding                                 
  Dipayan Datta          : RHF DLPNO-CCSD density                        
  Achintya Kumar Dutta   : EOM-CC, STEOM-CC                              
  Nicolas Foglia         : Exact transition moments, OPA infrastructure, MCD improvements    
  Dmitry Ganyushin       : Spin-Orbit,Spin-Spin,Magnetic field MRCI      
  Miquel Garcia-Rates    : C-PCM and meta-GGA Hessian, CCSD/C-PCM, Gaussian charge scheme 
  Tiago L. C. Gouveia    : GS-ROHF, GS-ROCIS                             
  Yang Guo               : DLPNO-NEVPT2, F12-NEVPT2, CIM, IAO-localization        
  Andreas Hansen         : Spin unrestricted coupled pair/coupled cluster methods 
  Ingolf Harden          : AUTO-CI MPn and infrastructure                
  Benjamin Helmich-Paris : MC-RPA, TRAH-(SCF,CASSCF), AVAS, COSX integrals, SCF dyn. polar., MC-PDFT, srDFT 
  Lee Huntington         : MR-EOM, pCC                                   
  Robert Izsak           : Overlap fitted RIJCOSX, COSX-SCS-MP3, EOM     
  Riya Kayal             : Wick's Theorem for AUTO-CI, AUTO-CI UHF-CCSDT 
  Emily Kempfer          : AUTO-CI RHF CISDT and CCSDT, approximate NEVPT4
  Christian Kollmar      : KDIIS, OOCD, Brueckner-CCSD(T), CCSD density, CASPT2, CASPT2-K, improved NEVPT2 
  Axel Koslowski         : Symmetry handling                             
  Simone Kossmann        : meta-GGA functionals, TD-DFT gradient, OOMP2, (MP2 Hessian; deprecated post 5.0) 
  Lucas Lang             : DCDCAS, Hyperfine gauge corrections, ICE-SOC+SSC
  Marvin Lechner         : AUTO-CI (C++ implementation), FIC-MRCC        
  Spencer Leger          : CASSCF response                               
  Dagmar Lenk            : GEPOL surface, SMD, ORCA-2-JSON               
  Dimitrios Liakos       : Extrapolation schemes; Compound Job, Property file
  Dimitrios Manganas     : Further ROCIS development; embedding schemes. LFT, Crystal Embedding 
  Dimitrios Pantazis     : SARC Basis sets                               
  Anastasios Papadopoulos: AUTO-CI, single reference methods and gradients 
  Taras Petrenko         : pre 6.0 DFT Hessian and TD-DFT gradient,  ECA, NRVS 
  Petra Pikulova         : Analytic Raman intensities                    
  Peter Pinski           : DLPNO-MP2, DLPNO-MP2 Gradient                 
  Shashank Vittal Rao    : ES-AILFT, MagRelax                            
  Christoph Reimann      : Effective Core Potentials                     
  Marius Retegan         : Local ZFS, SOC                                
  Christoph Riplinger    : Optimizer, TS searches, QM/MM, DLPNO-CCSD(T), (RO)-DLPNO pert. Triples 
  Michael Roemelt        : Original ROCIS implementation, recursive CI coupling coefficients
  Masaaki Saitow         : Open-shell DLPNO-CCSD energy and density      
  Barbara Sandhoefer     : DKH picture change effects                    
  Yorick L. A. Schmerwitz: GMF and freeze-and-release deltaSCF, NEB S-IDPP initial path                    
  Kantharuban Sivalingam : CASSCF convergence/infrastructure, NEVPT2, NEVPT3, NEVPT4(SD), FIC-MRCI and CEPA variants
  Bernardo de Souza      : ESD, SOC TD-DFT                               
  Georgi L. Stoychev     : AutoAux, RI-MP2 NMR, DLPNO-MP2 response, X2C  
  Van Anh Tran           : RI-MP2 g-tensors                              
  Willem Van den Heuvel  : Paramagnetic NMR                              
  Zikuan Wang            : NOTCH, Electric field optimization            
  Frank Wennmohs         : Technical directorship and infrastructure     
  Hang Xu                : AUTO-CI-Response properties                   
                                                                         
[FACCTs GmbH]                                                            
  Markus Bursch, Nicolas Foglia, Miquel Garcia-Rates, Ingolf Harden, Hagen Neugebauer, Anastasios Papadopoulos, 
  Christoph Riplinger, Bernardo de Souza, Georgi L. Stoychev                                                    
                                                                 
  APM, various basis sets, CI-OPT, improved COSX, DLPNO-Multilevel,           
  DOCKER, DRACO, updates on ESD, Fragmentator, GOAT, IRC, LR-CPCM, L-BFGS, MBIS, meta-GGA TD-DFT gradient, ML-optimized integration grids, 
  MM, NACMEs, nearIR, NEB, NEB-TS, NL-DFT gradient (VV10), 2- and 3-layer-ONIOM, interface openCOSMO-RS, QMMM,   
  Crystal-QMMM, RESP, rigid body optimization, SF, symmetry and pop. for TD-DFT, various functionals, SOLVATOR                                   
                                                                         
[Other institutions]                                                     
  V. Asgeirsson          : NEB                                           
  Christoph Bannwarth    : sTDA-DFT, sTD-DFT, PBEh-3c, B97-3c, D3        
  Giovanni Bistoni       : ETS/NOCV, ADLD/ADEX, COVALED                  
  Martin Brehm           : Molecular dynamics                            
  Ronald Cardenas        : ETS/NOCV                                      
  Martina Colucci        : COVALED                                       
  Sebastian Ehlert       : rSCAN, r2SCAN, r2SCAN-3c, D4, dhf basis sets  
  Marvin Friede          : D4 for Fr, Ra, Ac-Lr                          
  Lars Goerigk           : TD-DFT with DH, B97 family of functionals     
  Stefan Grimme          : VdW corrections, initial TS optimization, DFT functionals, gCP, sTDA/sTD-DF 
  Waldemar Hujo          : DFT-NL                                        
  H. Jonsson             : NEB                                           
  Holger Kruse           : gCP                                           
  Marcel Mueller         : wB97X-3c, vDZP basis set                      
  Hagen Neugebauer       : wr2SCAN, Native XTB                           
  Gianluca Regni         : ADLD/ADEX                                     
  Tobias Risthaus        : pre 6.0 range-separated hybrid DFT and stability analysis
  Lukas Wittmann         : regularized MP2, r2SCAN double-hybrids, wr2SCAN        
                                                                         
We gratefully acknowledge several colleagues who have allowed us to      
interface, adapt or use parts of their codes:                            
  Ed Valeev, F. Pavosevic, A. Kumar             : LibInt (2-el integral package), F12 methods 
  Garnet Chan, S. Sharma, J. Yang, R. Olivares  : DMRG                   
  Ulf Ekstrom                                   : XCFun DFT Library      
  Mihaly Kallay                                 : mrcc  (arbitrary order and MRCC methods)
  Frank Weinhold                                : gennbo (NPA and NBO analysis)           
  Simon Mueller                                 : openCOSMO-RS                            
  Christopher J. Cramer and Donald G. Truhlar   : smd solvation model                     
  S Lehtola, MJT Oliveira, MAL Marques          : LibXC Library                           
  Liviu Ungur et al                             : ANISO software                          


 Your calculation uses the libint2 library for the computation of 2-el integrals
 For citations please refer to: http://libint.valeyev.net

 Your ORCA version has been built with support for libXC version: 7.0.0
 For citations please refer to: https://libxc.gitlab.io

 This ORCA versions uses:
   CBLAS   interface :  Fast vector & matrix operations
   LAPACKE interface :  Fast linear algebra routines
   SCALAPACK package :  Parallel linear algebra routines
   Shared memory     :  Shared parallel matrices
   BLAS/LAPACK       :  OpenBLAS 0.3.29  USE64BITINT DYNAMIC_ARCH NO_AFFINITY Bulldozer SINGLE_THREADED
        Core in use  :  Bulldozer
   Copyright (c) 2011-2014, The OpenBLAS Project


  ***********************************
  * Starting time: Wed Aug 27 18:24:52 2025
  * Host name:     chromium11
  * Process ID:    486437
  * Working dir.:  /local/scratch/mehlhorn/62302
  ***********************************



***************************************
The coordinates will be read from file: start.xyz
***************************************


Your calculation utilizes the atom-pairwise dispersion correction
with the Becke-Johnson damping scheme (D3BJ)


Warning: RI is on but no J-basis has been assigned. Assigning Def2/J (nothing to worry about!)
================================================================================

----- Orbital basis set information -----
Your calculation utilizes the basis: def2-TZVP
   F. Weigend and R. Ahlrichs, Phys. Chem. Chem. Phys. 7, 3297 (2005).

----- AuxJ basis set information -----
Your calculation utilizes the auxiliary basis: def2/J
   H-Rn: F. Weigend, Phys. Chem. Chem. Phys. 8, 1057 (2006).
   Fr-Lr: K. Eichkorn, F. Weigend, O. Treutler, R. Ahlrichs; Theor. Chem. Acc. 97, 119 (1997).

================================================================================
                                        WARNINGS
                       Please study these warnings very carefully!
================================================================================

WARNING: Old DensityContainer found on disk!
         Will remove this file - 
         If you want to keep old densities, please start your calculation with a different basename. 


WARNING: Geometry Optimization
  ===> : Switching off AutoStart
         For restart on a previous wavefunction, please use MOREAD

================================================================================
                                       INPUT FILE
================================================================================
NAME = run.inp
|  1> # Geometry optimization for (AlH3)n cluster
|  2> 
|  3> %pal nprocs 24  end
|  4> 
|  5> %geom MaxIter 500 end
|  6> 
|  7> %cpcm
|  8> 	epsilon 1.95778548766667
|  9> end
| 10> 
| 11> ! PBE def2-TZVP
| 12> ! RKS	# closed shell for AlH3
| 13> ! D3    #  dispersion correction
| 14> ! Freq 	# Frequency analysis to check the stabiltity of the structures
| 15> 
| 16> ! NoPop # population analysis not necessary	
| 17> 
| 18> ! DEFGRID3
| 19> ! TightSCF
| 20> ! TightOpt
| 21> 
| 22> ! SmallPrint
| 23> 
| 24> 
| 25> * xyzFile 0 1 start.xyz # only maingroup elements H and Al so there should be no net spin
| 26> 
| 27>                          ****END OF INPUT****
================================================================================

                       *****************************
                       * Geometry Optimization Run *
                       *****************************

Geometry optimization settings:
Update method            Update   .... BFGS
Choice of coordinates    CoordSys .... (2022) Redundant Internals
Initial Hessian          InHess   .... Almloef's Model
Max. no of cycles        MaxIter  .... 500

Convergence Tolerances:
Energy Change            TolE     ....  1.0000e-06 Eh
Max. Gradient            TolMAXG  ....  1.0000e-04 Eh/bohr
RMS Gradient             TolRMSG  ....  3.0000e-05 Eh/bohr
Max. Displacement        TolMAXD  ....  1.0000e-03 bohr
RMS Displacement         TolRMSD  ....  6.0000e-04 bohr
Strict Convergence                .... False

------------------------------------------------------------------------------
                        ORCA OPTIMIZATION COORDINATE SETUP
------------------------------------------------------------------------------

The optimization will be done in redundant internal coordinates (2022)
Making redundant internal coordinates   ...  (2022 redundants) done
Evaluating the initial hessian          ...  (Almloef) done
Evaluating the coordinates              ...  done
Calculating the B-matrix                .... done
Calculating the G-matrix                .... done
The number of degrees of freedom        ....  117

    -----------------------------------------------------------------
                    Redundant Internal Coordinates


    -----------------------------------------------------------------
         Definition                    Initial Value    Approx d2E/dq
    -----------------------------------------------------------------
      1. B(Al  1,Al  0)                  3.0594         0.066598   
      2. B(H   2,Al  1)                  1.7196         0.249719   
      3. B(H   3,Al  1)                  1.5876         0.405675   
      4. B(H   4,Al  1)                  1.7197         0.249710   
      5. B(H   4,Al  0)                  1.7194         0.249930   
      6. B(H   5,Al  0)                  1.5878         0.405392   
      7. B(H   6,Al  0)                  1.8022         0.184388   
      8. B(H   7,Al  1)                  1.5875         0.405704   
      9. B(Al  8,H   6)                  1.6748         0.294423   
     10. B(Al  8,H   2)                  1.7194         0.249954   
     11. B(Al  8,Al  1)                  3.0630         0.065726   
     12. B(Al  8,Al  0)                  3.0692         0.064234   
     13. B(H   9,Al  8)                  1.5877         0.405401   
     14. B(H  10,Al  8)                  1.5887         0.404033   
     15. B(H  11,Al  0)                  1.5887         0.403953   
     16. A(H   4,Al  0,H   6)          101.2184         0.311776   
     17. A(Al  1,Al  0,H   4)           27.1782         0.304803   
     18. A(Al  1,Al  0,Al  8)           59.9710         0.282553   
     19. A(Al  8,Al  0,H  11)          103.8225         0.327616   
     20. A(H   4,Al  0,H   5)          104.6178         0.355261   
     21. A(H   6,Al  0,H  11)           97.2655         0.337349   
     22. A(Al  1,Al  0,H   5)          131.6175         0.329769   
     23. A(Al  1,Al  0,H  11)           88.9986         0.329576   
     24. A(H   5,Al  0,H  11)          128.3942         0.385826   
     25. A(H   5,Al  0,H   6)          113.7485         0.337549   
     26. A(H   4,Al  0,Al  8)           74.3647         0.303045   
     27. A(Al  1,Al  0,H   6)           85.4426         0.290447   
     28. A(H   5,Al  0,Al  8)          122.7144         0.327808   
     29. A(H   4,Al  0,H  11)          108.5698         0.355047   
     30. A(H   6,Al  0,Al  8)           26.9294         0.288806   
     31. A(H   2,Al  1,H   7)          104.8020         0.355257   
     32. A(H   3,Al  1,H   4)          104.8089         0.355250   
     33. A(Al  0,Al  1,H   3)          127.3292         0.329807   
     34. A(H   2,Al  1,H   4)           95.9405         0.327558   
     35. A(H   4,Al  1,Al  8)           74.5459         0.304117   
     36. A(H   3,Al  1,Al  8)           98.9571         0.329090   
     37. A(H   2,Al  1,H   3)          109.5819         0.355252   
     38. A(H   2,Al  1,Al  8)           27.0416         0.304119   
     39. A(Al  0,Al  1,Al  8)           60.1739         0.283561   
     40. A(H   7,Al  1,Al  8)          127.3503         0.329094   
     41. A(Al  0,Al  1,H   4)           27.1741         0.304760   
     42. A(H   4,Al  1,H   7)          109.5776         0.355254   
     43. A(Al  0,Al  1,H   7)           99.0861         0.329811   
     44. A(Al  0,Al  1,H   2)           74.3079         0.304762   
     45. A(H   3,Al  1,H   7)          127.6509         0.386164   
     46. A(Al  1,H   2,Al  8)          125.9123         0.327611   
     47. A(Al  0,H   4,Al  1)          125.6477         0.327604   
     48. A(Al  0,H   6,Al  8)          123.9048         0.320192   
     49. A(Al  1,Al  8,H   2)           27.0460         0.304165   
     50. A(Al  0,Al  8,H   2)           74.0220         0.303050   
     51. A(Al  0,Al  8,Al  1)           59.8551         0.281976   
     52. A(H   6,Al  8,H  10)          117.2580         0.365110   
     53. A(H   2,Al  8,H  10)          108.6044         0.355064   
     54. A(Al  1,Al  8,H  10)           89.2453         0.328870   
     55. A(Al  0,Al  8,H  10)          104.5800         0.327627   
     56. A(H   6,Al  8,H   9)           97.6138         0.365321   
     57. A(H   9,Al  8,H  10)          128.3849         0.385841   
     58. A(H   2,Al  8,H   9)          104.5918         0.355268   
     59. A(Al  1,Al  8,H   9)          131.4375         0.329053   
     60. A(Al  0,Al  8,H   9)          122.0835         0.327809   
     61. A(H   2,Al  8,H   6)           94.9143         0.336673   
     62. A(Al  1,Al  8,H   6)           87.4569         0.312289   
     63. A(Al  0,Al  8,H   6)           29.1658         0.311131   
     64. D(H   2,Al  1,Al  0,H   4)   -141.5036         0.010000   
     65. D(H   3,Al  1,Al  0,H   6)     87.0435         0.010000   
     66. D(H   3,Al  1,Al  0,H   5)    -30.9639         0.010000   
     67. D(H   3,Al  1,Al  0,Al  8)     77.7892         0.010000   
     68. D(H   2,Al  1,Al  0,Al  8)    -25.1293         0.010000   
     69. D(H   3,Al  1,Al  0,H   4)    -38.5851         0.010000   
     70. D(H   2,Al  1,Al  0,H   6)    -15.8750         0.010000   
     71. D(H   2,Al  1,Al  0,H   5)   -133.8824         0.010000   
     72. D(H   2,Al  1,Al  0,H  11)     81.4953         0.010000   
     73. D(H   3,Al  1,Al  0,H  11)   -175.5862         0.010000   
     74. D(Al  8,H   2,Al  1,H   7)    149.6049         0.010000   
     75. D(Al  8,H   2,Al  1,H   3)    -70.5234         0.010000   
     76. D(Al  8,H   2,Al  1,Al  0)     54.1291         0.010000   
     77. D(Al  8,H   2,Al  1,H   4)     37.5217         0.010000   
     78. D(Al  1,H   4,Al  0,H   5)   -174.1189         0.010000   
     79. D(Al  0,H   4,Al  1,H   7)    -70.9874         0.010000   
     80. D(Al  0,H   4,Al  1,Al  8)     53.7450         0.010000   
     81. D(Al  0,H   4,Al  1,H   3)    149.1385         0.010000   
     82. D(Al  0,H   4,Al  1,H   2)     37.0493         0.010000   
     83. D(Al  1,H   4,Al  0,H  11)     45.9993         0.010000   
     84. D(Al  1,H   4,Al  0,Al  8)    -53.6547         0.010000   
     85. D(Al  1,H   4,Al  0,H   6)    -55.6923         0.010000   
     86. D(Al  8,H   6,Al  0,H   4)      4.3360         0.010000   
     87. D(Al  8,H   6,Al  0,Al  1)    -17.9043         0.010000   
     88. D(Al  8,H   6,Al  0,H   5)    115.9500         0.010000   
     89. D(Al  8,H   6,Al  0,H  11)   -106.3091         0.010000   
     90. D(Al  1,Al  8,Al  0,H  11)    -80.6186         0.010000   
     91. D(Al  1,Al  8,Al  0,H   6)   -159.2698         0.010000   
     92. D(Al  1,Al  8,Al  0,H   5)    122.7149         0.010000   
     93. D(H   2,Al  8,Al  0,Al  1)     25.1714         0.010000   
     94. D(Al  1,Al  8,Al  0,H   4)     25.1469         0.010000   
     95. D(H   9,Al  8,H   6,Al  0)    149.3262         0.010000   
     96. D(H   2,Al  8,H   6,Al  0)     43.8640         0.010000   
     97. D(Al  1,Al  8,H   6,Al  0)     17.8423         0.010000   
     98. D(H  10,Al  8,H   2,Al  1)     46.3767         0.010000   
     99. D(H   9,Al  8,H   2,Al  1)   -173.7477         0.010000   
    100. D(H   6,Al  8,H   2,Al  1)    -74.5524         0.010000   
    101. D(H   6,Al  8,Al  1,H   2)    105.9966         0.010000   
    102. D(H   6,Al  8,Al  1,Al  0)     -9.9432         0.010000   
    103. D(H   2,Al  8,Al  1,H   7)    -37.9775         0.010000   
    104. D(H   2,Al  8,Al  1,H   4)   -141.0593         0.010000   
    105. D(H   2,Al  8,Al  1,H   3)    115.9448         0.010000   
    106. D(H   2,Al  8,Al  1,Al  0)   -115.9398         0.010000   
    107. D(Al  0,Al  8,Al  1,H   7)     77.9623         0.010000   
    108. D(Al  0,Al  8,Al  1,H   4)    -25.1195         0.010000   
    109. D(Al  0,Al  8,H   2,Al  1)    -53.9873         0.010000   
    110. D(Al  0,Al  8,Al  1,H   3)   -128.1154         0.010000   
    111. D(Al  0,Al  8,Al  1,H   2)    115.9398         0.010000   
    112. D(H   6,Al  8,Al  0,Al  1)    159.2698         0.010000   
    113. D(H   2,Al  8,Al  0,H  11)    -55.4472         0.010000   
    114. D(H   2,Al  8,Al  0,H   6)   -134.0984         0.010000   
    115. D(H   2,Al  8,Al  0,H   5)    147.8863         0.010000   
    116. D(H  10,Al  8,H   6,Al  0)    -69.9963         0.010000   
    117. D(H   2,Al  8,Al  0,H   4)     50.3183         0.010000   
    -----------------------------------------------------------------

Number of atoms                         .... 12
Number of degrees of freedom            .... 117


         *************************************************************
         *                GEOMETRY OPTIMIZATION CYCLE   1            *
         *************************************************************
---------------------------------
CARTESIAN COORDINATES (ANGSTROEM)
---------------------------------
  Al    -0.231050    1.516440    2.565620
  Al     0.000060   -0.000480   -0.081180
  H      0.868980   -0.937650    1.069410
  H     -1.107900   -0.902020   -0.774000
  H     -0.859020    0.943970    1.070860
  H     -1.473820    2.186280    3.292110
  H      0.313380   -0.022370    3.329550
  H      1.102130    0.896660   -0.788900
  Al     0.257220   -1.513720    2.569470
  H      1.513300   -2.164620    3.290250
  H     -1.177010   -2.150220    2.321060
  H      1.210060    2.132790    2.306120

----------------------------
CARTESIAN COORDINATES (A.U.)
----------------------------
  NO LB      ZA    FRAG     MASS         X           Y           Z
   0 Al   13.0000    0    26.982   -0.436621    2.865656    4.848319
   1 Al   13.0000    0    26.982    0.000113   -0.000907   -0.153408
   2 H     1.0000    0     1.008    1.642134   -1.771902    2.020892
   3 H     1.0000    0     1.008   -2.093628   -1.704571   -1.462648
   4 H     1.0000    0     1.008   -1.623313    1.783845    2.023632
   5 H     1.0000    0     1.008   -2.785116    4.131470    6.221186
   6 H     1.0000    0     1.008    0.592202   -0.042273    6.291938
   7 H     1.0000    0     1.008    2.082724    1.694442   -1.490805
   8 Al   13.0000    0    26.982    0.486075   -2.860516    4.855595
   9 H     1.0000    0     1.008    2.859723   -4.090539    6.217671
  10 H     1.0000    0     1.008   -2.224227   -4.063327    4.386168
  11 H     1.0000    0     1.008    2.286682    4.030389    4.357935

--------------------------------
INTERNAL COORDINATES (ANGSTROEM)
--------------------------------
 Al     0   0   0     0.000000000000     0.00000000     0.00000000
 Al     1   0   0     3.059413074186     0.00000000     0.00000000
 H      2   1   0     1.719641510141    74.30792667     0.00000000
 H      2   1   3     1.587560797450   127.32923707   102.91848440
 H      1   2   3     1.719411434009    27.17818946   218.49640986
 H      1   2   3     1.587750175122   131.61746145   226.11757269
 H      1   2   3     1.802201233464    85.44259681   344.12503239
 H      2   1   3     1.587540885426    99.08612155   257.06695035
 Al     7   1   2     1.674813534248   123.90481826   342.09574426
 H      9   7   1     1.587744181158    97.61380031   149.32622461
 H      9   7   1     1.588664681737   117.25797289   290.00374168
 H      1   2   3     1.588718226936    88.99861261    81.49534583

---------------------------
INTERNAL COORDINATES (A.U.)
---------------------------
 Al     0   0   0     0.000000000000     0.00000000     0.00000000
 Al     1   0   0     5.781452840750     0.00000000     0.00000000
 H      2   1   0     3.249651502689    74.30792667     0.00000000
 H      2   1   3     3.000055128130   127.32923707   102.91848440
 H      1   2   3     3.249216721809    27.17818946   218.49640986
 H      1   2   3     3.000413000066   131.61746145   226.11757269
 H      1   2   3     3.405666769462    85.44259681   344.12503239
 H      2   1   3     3.000017499858    99.08612155   257.06695035
 Al     7   1   2     3.164938905113   123.90481826   342.09574426
 H      9   7   1     3.000401673115    97.61380031   149.32622461
 H      9   7   1     3.002141167117   117.25797289   290.00374168
 H      1   2   3     3.002242352879    88.99861261    81.49534583

---------------------
BASIS SET INFORMATION
---------------------
There are 2 groups of distinct atoms

 Group   1 Type Al  : 14s9p3d1f contracted to 5s5p2d1f pattern {73211/51111/21/1}
 Group   2 Type H   : 5s1p contracted to 3s1p pattern {311/1}

Atom   0Al   basis set group =>   1
Atom   1Al   basis set group =>   1
Atom   2H    basis set group =>   2
Atom   3H    basis set group =>   2
Atom   4H    basis set group =>   2
Atom   5H    basis set group =>   2
Atom   6H    basis set group =>   2
Atom   7H    basis set group =>   2
Atom   8Al   basis set group =>   1
Atom   9H    basis set group =>   2
Atom  10H    basis set group =>   2
Atom  11H    basis set group =>   2
---------------------------------
AUXILIARY/J BASIS SET INFORMATION
---------------------------------
There are 2 groups of distinct atoms

 Group   1 Type Al  : 14s5p5d2f1g contracted to 8s4p3d1f1g pattern {71111111/2111/311/2/1}
 Group   2 Type H   : 5s2p1d contracted to 3s1p1d pattern {311/2/1}

Atom   0Al   basis set group =>   1
Atom   1Al   basis set group =>   1
Atom   2H    basis set group =>   2
Atom   3H    basis set group =>   2
Atom   4H    basis set group =>   2
Atom   5H    basis set group =>   2
Atom   6H    basis set group =>   2
Atom   7H    basis set group =>   2
Atom   8Al   basis set group =>   1
Atom   9H    basis set group =>   2
Atom  10H    basis set group =>   2
Atom  11H    basis set group =>   2


           ************************************************************
           *        Program running with 24 parallel MPI-processes    *
           *              working on a common directory               *
           ************************************************************
------------------------------------------------------------------------------
                             ORCA STARTUP CALCULATIONS
                           -- RI-GTO INTEGRALS CHOSEN --
------------------------------------------------------------------------------
------------------------------------------------------------------------------
                   ___                                                        
                  /   \      - P O W E R E D   B Y -                         
                 /     \                                                     
                 |  |  |   _    _      __       _____    __    __             
                 |  |  |  | |  | |    /  \     |  _  \  |  |  /  |          
                  \  \/   | |  | |   /    \    | | | |  |  | /  /          
                 / \  \   | |__| |  /  /\  \   | |_| |  |  |/  /          
                |  |  |   |  __  | /  /__\  \  |    /   |      \           
                |  |  |   | |  | | |   __   |  |    \   |  |\   \          
                \     /   | |  | | |  |  |  |  | |\  \  |  | \   \       
                 \___/    |_|  |_| |__|  |__|  |_| \__\ |__|  \__/        
                                                                              
                      - O R C A' S   B I G   F R I E N D -                    
                                      &                                       
                       - I N T E G R A L  F E E D E R -                       
                                                                              
 v1 FN, 2020, v2 2021, v3 2022-2024                                           
------------------------------------------------------------------------------


----------------------
SHARK INTEGRAL PACKAGE
----------------------

Number of atoms                             ...     12
Number of basis functions                   ...    165
Number of shells                            ...     75
Maximum angular momentum                    ...      3
Integral batch strategy                     ... SHARK/LIBINT Hybrid
RI-J (if used) integral strategy            ... SPLIT-RIJ (Revised 2003 algorithm where possible)
Printlevel                                  ...      1
Contraction scheme used                     ... SEGMENTED contraction
Prescreening option                         ... SCHWARTZ
   Thresh                                   ... 2.500e-11
   Tcut                                     ... 2.500e-12
   Tpresel                                  ... 2.500e-12 
Coulomb Range Separation                    ... NOT USED
Exchange Range Separation                   ... NOT USED
Multipole approximations                    ... NOT USED
Finite Nucleus Model                        ... NOT USED
CABS basis                                  ... NOT available
Auxiliary Coulomb fitting basis             ... AVAILABLE
   # of basis functions in Aux-J            ...    252
   # of shells in Aux-J                     ...     96
   Maximum angular momentum in Aux-J        ...      4
Auxiliary J/K fitting basis                 ... NOT available
Auxiliary Correlation fitting basis         ... NOT available
Auxiliary 'external' fitting basis          ... NOT available

Checking pre-screening integrals            ... done (  0.0 sec) Dimension = 75
   => SHARK Basis and OBASIS are compatible. Storing Pre-screening
Shell pair information
Shell pair cut-off parameter TPreSel        ...   2.5e-12
Total number of shell pairs                 ...      2850
Shell pairs after pre-screening             ...      2637
Total number of primitive shell pairs       ...      9315
Primitive shell pairs kept                  ...      6539
          la=0 lb=0:    835 shell pairs
          la=1 lb=0:    899 shell pairs
          la=1 lb=1:    264 shell pairs
          la=2 lb=0:    252 shell pairs
          la=2 lb=1:    144 shell pairs
          la=2 lb=2:     21 shell pairs
          la=3 lb=0:    126 shell pairs
          la=3 lb=1:     72 shell pairs
          la=3 lb=2:     18 shell pairs
          la=3 lb=3:      6 shell pairs

Checking whether 4 symmetric matrices of dimension 165 fit in memory
:Max Core in MB      =   4096.00
 MB in use           =      6.63
 MB left             =   4089.37
 MB needed           =      0.42
 Data fit in memory  = YES
Calculating RI/J V-Matrix + Cholesky decomp.... done (  0.0 sec)
Calculating Nuclear repulsion               ... done (  0.0 sec) ENN=    170.913867187329 Eh

Diagonalization of the overlap matrix:
Smallest eigenvalue                        ... 1.922e-03
Time for diagonalization                   ...    0.028 sec
Threshold for overlap eigenvalues          ... 1.000e-07
Number of eigenvalues below threshold      ... 0
Time for construction of square roots      ...    0.004 sec
Total time needed                          ...    0.034 sec

-------------------
DFT GRID GENERATION
-------------------

General Integration Accuracy     IntAcc      ... 4.959
Radial Grid Type                 RadialGrid  ... OptM3 with GC (2021)
Angular Grid (max. ang.)         AngularGrid ... 6 (Lebedev-590)
Angular grid pruning method      GridPruning ... 4 (adaptive)
Weight generation scheme         WeightScheme... mBecke (2022)
Basis function cutoff            BFCut       ... 1.0000e-11
Integration weight cutoff        WCut        ... 1.0000e-14
Partially contracted basis set               ... off
Rotationally invariant grid construction     ... off
Angular grids for H and He will be reduced by one unit

Total number of grid points                  ...   128081
Total number of batches                      ...     2007
Average number of points per batch           ...       63
Average number of grid points per atom       ...    10673
Grids setup in   3.2 sec
Initializing property integral containers    ... done (  0.0 sec)

SHARK setup successfully completed in   3.6 seconds

Maximum memory used throughout the entire STARTUP-calculation: 28.3 MB


           ************************************************************
           *        Program running with 24 parallel MPI-processes    *
           *              working on a common directory               *
           ************************************************************
-------------------------------------------------------------------------------
                                 ORCA GUESS
                   Start orbitals & Density for SCF / CASSCF
-------------------------------------------------------------------------------

------------
SCF SETTINGS
------------
Hamiltonian:
 Density Functional     Method          .... DFT(GTOs)
 Exchange Functional    Exchange        .... PBE
   PBE kappa parameter   XKappa         ....  0.804000
   PBE mue parameter    XMuePBE         ....  0.219520
 Correlation Functional Correlation     .... PBE
   PBE beta parameter  CBetaPBE         ....  0.066725
 LDA part of GGA corr.  LDAOpt          .... PW91-LDA
 Gradients option       PostSCFGGA      .... off
   NL short-range parameter             ....  6.400000
 RI-approximation to the Coulomb term is turned on
   Number of AuxJ basis functions       .... 252


General Settings:
 Integral files         IntName         .... run
 Hartree-Fock type      HFTyp           .... RHF
 Total Charge           Charge          ....    0
 Multiplicity           Mult            ....    1
 Number of Electrons    NEL             ....   48
 Basis Dimension        Dim             ....  165
 Nuclear Repulsion      ENuc            ....    170.9138671873 Eh

Convergence Acceleration:
 AO-DIIS                CNVDIIS         .... on
   Start iteration      DIISMaxIt       ....    12
   Startup error        DIISStart       ....  0.200000
   # of expansion vecs  DIISMaxEq       ....     5
   Bias factor          DIISBfac        ....   1.050
   Max. coefficient     DIISMaxC        ....  10.000
 MO-DIIS                CNVKDIIS        .... off
 Trust-Rad. Augm. Hess. CNVTRAH         .... auto
   Auto Start mean grad. ratio tolernc. ....  1.125000
   Auto Start start iteration           ....    50
   Auto Start num. interpolation iter.  ....    10
   Max. Number of Micro iterations      ....    24
   Max. Number of Macro iterations      .... Maxiter - #DIIS iter
   Number of Davidson start vectors     ....     2
   Converg. threshold    (grad. norm)   ....   1.000e-05
   Grad. Scal. Fac. for Micro threshold ....   0.100
   Minimum threshold for Micro iter.    ....   1.000e-02
   NR start threshold (gradient norm)   ....   1.000e-04
   Initial trust radius                 ....   0.400
   Minimum AH scaling param. (alpha)    ....   1.000
   Maximum AH scaling param. (alpha)    .... 1000.000
   Quad. conv. algorithm                .... NR
   White noise on init. David. guess    .... on
   Maximum white noise                  ....   0.010
   Pseudo random numbers                .... off
   Inactive MOs                         .... canonical
   Orbital update algorithm             .... Taylor
   Preconditioner                       .... Diag
   Full preconditioner red. dimension   ....   250
 SOSCF                 CNVSOSCF           .... on
   Start iteration     SOSCFMaxIt         ....   150
   Startup grad/error  SOSCFStart         ....  0.003300
   Hessian update      SOSCFHessUp        .... L-BFGS
   Autom. constraints  SOSCFAutoConstrain .... off
 Level Shifting         CNVShift        .... on
   Level shift para.    LevelShift      ....    0.2500
   Turn off err/grad.   ShiftErr        ....    0.0010
 Zerner damping         CNVZerner       .... off
 Static damping         CNVDamp         .... on
   Fraction old density DampFac         ....    0.7000
   Max. Damping (<1)    DampMax         ....    0.9800
   Min. Damping (>=0)   DampMin         ....    0.0000
   Turn off err/grad.   DampErr         ....    0.1000

SCF Procedure:
 Maximum # iterations   MaxIter         ....   125
 SCF integral mode      SCFMode         .... Direct
   Integral package                     .... SHARK and LIBINT hybrid scheme
 Reset frequency        DirectResetFreq ....    20
 Integral Threshold     Thresh          ....  2.500e-11 Eh
 Primitive CutOff       TCut            ....  2.500e-12 Eh

Convergence Tolerance:
 Convergence Check Mode ConvCheckMode   .... Total+1el-Energy
 Convergence forced     ConvForced      .... 0
 Energy Change          TolE            ....  1.000e-08 Eh
 1-El. energy change                    ....  1.000e-05 Eh
 Orbital Gradient       TolG            ....  1.000e-05
 Orbital Rotation angle TolX            ....  1.000e-05
 DIIS Error             TolErr          ....  5.000e-07

------------------------------
INITIAL GUESS: MODEL POTENTIAL
------------------------------
Loading Hartree-Fock densities                     ... done
Calculating cut-offs                               ... done
Initializing the effective Hamiltonian             ... done
Setting up the integral package (SHARK)            ... done
Starting the Coulomb interaction                   ... done (   0.1 sec)
Making the grid                                    ... done (   0.1 sec)
Mapping shells                                     ... done
Starting the XC term evaluation                    ... done (   0.0 sec)
  promolecular density results
     # of electrons  =     47.995618223
     EX              =    -56.691227579
     EC              =     -1.650650386
     EX+EC           =    -58.341877964
Transforming the Hamiltonian                       ... done (   0.0 sec)
Diagonalizing the Hamiltonian                      ... done (   0.0 sec)
Back transforming the eigenvectors                 ... done (   0.0 sec)
Now organizing SCF variables                       ... done
                      ------------------
                      INITIAL GUESS DONE (   0.3 sec)
                      ------------------
             **** ENERGY FILE WAS UPDATED (run.en.tmp) ****
Finished Guess after   0.9 sec
Maximum memory used throughout the entire GUESS-calculation: 10.5 MB


           ************************************************************
           *        Program running with 24 parallel MPI-processes    *
           *              working on a common directory               *
           ************************************************************

-------------------------------------------------------------------------------------------
                                      ORCA LEAN-SCF
                              memory conserving SCF solver
-------------------------------------------------------------------------------------------

--------------------
CPCM SOLVATION MODEL
--------------------
CPCM parameters:
  Epsilon                                         ...       1.9578
  Refrac                                          ...       1.0000
  Rsolv                                           ...       1.3000
  Surface type                                    ... GAUSSIAN VDW
  Discretization scheme                           ... Constant charge density
    Threshold for H atoms                         ...       5.0000 (charges/Ang^2)
    Threshold for non-H atoms                     ...       5.0000 (charges/Ang^2)
  Epsilon function type                           ...         CPCM
Solvent:                                          ... CUSTOM
Radii:
  Scheme                                          ... Element-dependent radii
  Radius for Al used is    4.1725 Bohr (=   2.2080 Ang.)
  Radius for H  used is    2.4944 Bohr (=   1.3200 Ang.)
Calculating surface                               ...        done! (  0.0s)
Cavity surface points                             ...         1110
Cavity Volume                                     ...     922.1940
Cavity Surface-area                               ...     550.8070
Calculating surface distance matrix               ...        done! (  0.0s)
Performing Cholesky decomposition & store         ...        done! (  0.1s)
Overall time for CPCM initialization              ...                 0.1s

----------------------------------------D-I-I-S--------------------------------------------
Iteration    Energy (Eh)           Delta-E    RMSDP     MaxDP     DIISErr   Damp  Time(sec)
-------------------------------------------------------------------------------------------
               ***  Starting incremental Fock matrix formation  ***
    1    -732.2152376878036648     0.00e+00  3.83e-03  1.78e-02  8.50e-02  0.700   0.5
    2    -732.2279323838936307    -1.27e-02  3.46e-03  1.66e-02  5.77e-02  0.700   0.4
                               ***Turning on AO-DIIS***
    3    -732.2361373093533530    -8.20e-03  2.01e-03  9.23e-03  3.45e-02  0.700   0.4
    4    -732.2410580728901550    -4.92e-03  4.25e-03  1.86e-02  2.25e-02  0.000   0.4
                              *** Initializing SOSCF ***
---------------------------------------S-O-S-C-F--------------------------------------
Iteration    Energy (Eh)           Delta-E    RMSDP     MaxDP     MaxGrad    Time(sec)
--------------------------------------------------------------------------------------
    5    -732.2508961587152498    -9.84e-03  4.07e-04  2.89e-03  1.61e-03     0.5
               *** Restarting incremental Fock matrix formation ***
    6    -732.2509225782009707    -2.64e-05  2.15e-04  9.36e-04  2.55e-04     0.4
    7    -732.2509250944226551    -2.52e-06  7.15e-05  7.55e-04  1.83e-04     0.4
    8    -732.2509259607595595    -8.66e-07  2.75e-05  2.58e-04  2.94e-05     0.3
    9    -732.2509259926960112    -3.19e-08  9.30e-06  6.59e-05  1.57e-05     0.3
   10    -732.2509260104220630    -1.77e-08  9.33e-07  6.68e-06  2.65e-06     0.3
   11    -732.2509260092053864     1.22e-09  5.06e-07  3.84e-06  1.34e-06     0.3
                 **** Energy Check signals convergence ****

               *****************************************************
               *                     SUCCESS                       *
               *           SCF CONVERGED AFTER  11 CYCLES          *
               *****************************************************

             **** ENERGY FILE WAS UPDATED (run.en.tmp) ****

----------------
TOTAL SCF ENERGY
----------------

Total Energy       :       -732.25092601222877 Eh          -19925.56069 eV

Components:
Nuclear Repulsion  :        170.91386718732946 Eh            4650.80277 eV
Electronic Energy  :       -903.16066752747895 Eh          -24576.25120 eV
One Electron Energy:      -1356.64316736978094 Eh          -36916.13736 eV
Two Electron Energy:        453.48249984230199 Eh           12339.88617 eV
CPCM Dielectric    :         -0.00412567207931 Eh              -0.11227 eV

Virial components:
Potential Energy   :      -1462.80759280886059 Eh          -39805.01825 eV
Kinetic Energy     :        730.55666679663170 Eh           19879.45756 eV
Virial Ratio       :          2.00231913456218

DFT components:
N(Alpha)           :       24.000001947252 electrons
N(Beta)            :       24.000001947252 electrons
N(Total)           :       48.000003894504 electrons
E(X)               :      -57.153999055417 Eh       
E(C)               :       -1.632328800933 Eh       
E(XC)              :      -58.786327856350 Eh       

CPCM Solvation Model Properties:
Surface-charge          :         -0.06174188476136
Corrected charge        :          0.00000000000000
Outlying charge corr.   :          0.00014543848870 Eh               0.00396 eV
Free-energy (cav+disp)  :  This term is not implemented in the current solvation scheme

---------------
SCF CONVERGENCE
---------------

  Last Energy change         ...   -1.2167e-09  Tolerance :   1.0000e-08
  Last MAX-Density change    ...    3.8415e-06  Tolerance :   1.0000e-07
  Last RMS-Density change    ...    5.0623e-07  Tolerance :   5.0000e-09
  Last DIIS Error            ...    1.6072e-03  Tolerance :   5.0000e-07
  Last Orbital Gradient      ...    1.3419e-06  Tolerance :   1.0000e-05
  Last Orbital Rotation      ...    8.9332e-07  Tolerance :   1.0000e-05


----------------
ORBITAL ENERGIES
----------------

  NO   OCC          E(Eh)            E(eV) 
   0   2.0000     -55.382092     -1507.0233 
   1   2.0000     -55.376471     -1506.8704 
   2   2.0000     -55.372721     -1506.7684 
   3   2.0000      -3.941693      -107.2589 
   4   2.0000      -3.936760      -107.1247 
   5   2.0000      -3.933678      -107.0408 
   6   2.0000      -2.546724       -69.2999 
   7   2.0000      -2.544822       -69.2481 
   8   2.0000      -2.541968       -69.1705 
   9   2.0000      -2.539566       -69.1051 
  10   2.0000      -2.538930       -69.0878 
  11   2.0000      -2.538735       -69.0825 
  12   2.0000      -2.536485       -69.0213 
  13   2.0000      -2.534114       -68.9567 
  14   2.0000      -2.531139       -68.8758 
  15   2.0000      -0.474935       -12.9236 
  16   2.0000      -0.389968       -10.6116 
  17   2.0000      -0.384883       -10.4732 
  18   2.0000      -0.308129        -8.3846 
  19   2.0000      -0.300713        -8.1828 
  20   2.0000      -0.292488        -7.9590 
  21   2.0000      -0.280399        -7.6300 
  22   2.0000      -0.271942        -7.3999 
  23   2.0000      -0.265377        -7.2213 
  24   0.0000      -0.053632        -1.4594 
  25   0.0000      -0.046555        -1.2668 
  26   0.0000      -0.042603        -1.1593 
  27   0.0000      -0.037409        -1.0179 
  28   0.0000      -0.018018        -0.4903 
  29   0.0000       0.004783         0.1301 
  30   0.0000       0.008783         0.2390 
  31   0.0000       0.022146         0.6026 
  32   0.0000       0.028392         0.7726 
  33   0.0000       0.041162         1.1201 
  34   0.0000       0.062528         1.7015 
*Only the first 10 virtual orbitals were printed.
-------
TIMINGS
-------

Total SCF time: 0 days 0 hours 0 min 5 sec 

Total time                  ....       5.480 sec
Sum of individual times     ....       5.104 sec  ( 93.1%)

SCF preparation             ....       0.763 sec  ( 13.9%)
Fock matrix formation       ....       3.730 sec  ( 68.1%)
  Startup                   ....       0.011 sec  (  0.3% of F)
  Split-RI-J                ....       0.539 sec  ( 14.5% of F)
  XC integration            ....       2.293 sec  ( 61.5% of F)
    XC Preparation          ....       0.000 sec  (  0.0% of XC)
    Basis function eval.    ....       0.594 sec  ( 25.9% of XC)
    Density eval.           ....       0.416 sec  ( 18.1% of XC)
    XC-Functional eval.     ....       0.081 sec  (  3.5% of XC)
    XC-Potential eval.      ....       0.458 sec  ( 20.0% of XC)
  CPCM terms                ....       0.985 sec  ( 26.4% of F)
Diagonalization             ....       0.000 sec  (  0.0%)
Density matrix formation    ....       0.081 sec  (  1.5%)
Total Energy calculation    ....       0.041 sec  (  0.8%)
Population analysis         ....       0.000 sec  (  0.0%)
Orbital Transformation      ....       0.047 sec  (  0.9%)
Orbital Orthonormalization  ....       0.000 sec  (  0.0%)
DIIS solution               ....       0.265 sec  (  4.8%)
SOSCF solution              ....       0.176 sec  (  3.2%)
Finished LeanSCF after   5.5 sec

Maximum memory used throughout the entire LEANSCF-calculation: 9.5 MB


           ************************************************************
           *        Program running with 24 parallel MPI-processes    *
           *              working on a common directory               *
           ************************************************************

------------------------------------------------------------------------------
                         ORCA PROPERTY INTEGRAL CALCULATIONS
------------------------------------------------------------------------------

GBWName                                   ... run.gbw
Number of atoms                           ...     12
Number of basis functions                 ...    165
Max core memory                           ...   4096 MB

Dipole integrals                          ... YES
Quadrupole integrals                      ...  NO
Linear momentum integrals                 ...  NO
Angular momentum integrals                ...  NO
Higher moments length integrals           ...  NO
Higher moments velocity integrals         ...  NO
Kinetic energy integrals                  ...  NO
GIAO right hand sides                     ...  NO
GIAO dipole derivative integrals          ...  NO
SOC integrals                             ...  NO
EPR diamagnetic integrals (GIAO)          ...  NO
EPR gauge integrals                       ...  NO
Field gradient integrals                  ...  NO (   0 nuclei)
Spin-dipole/Fermi contact integrals       ...  NO (   0 nuclei)
Contact density integrals                 ...  NO (   0 nuclei)
Nucleus-orbit integrals                   ...  NO (   0 nuclei)
Geometric perturbations                   ...  NO (  12 nuclei)

Choice of electric origin   ... Center of mass
Position of electric origin ... (  0.0231,  0.0009,  3.1825) 
Choice of magnetic origin   ... GIAO
Position of magnetic origin ... (  0.0000,  0.0000,  0.0000) 

Calculating integrals                     ... Electric Dipole (Length)     done (  0.0 sec)

Property integrals calculated in   0.0 sec

Maximum memory used throughout the entire PROPINT-calculation: 10.8 MB


-------------------------------------------------------------------------------
                          DFT DISPERSION CORRECTION                            
                                                                               
                              DFTD3 V3.1  Rev 1                                
                          USING Becke-Johnson damping                          
-------------------------------------------------------------------------------
The PBE functional is recognized
Active option DFTDOPT                   ...         4   

molecular C6(AA) [au] = 2779.624718 


            DFT-D V3
 parameters
 s6 scaling factor         :     1.0000 
 a1 scaling factor         :     0.4289 
 s8 scaling factor         :     0.7875 
 a2 scaling factor         :     4.4407 
 ad hoc parameters k1-k3   :    16.0000     1.3333    -4.0000 

 Edisp/kcal,au: -5.700334880992  -0.009084060892 
 E6   /kcal   :  -3.584302094 
 E8   /kcal   :  -2.116032787 
 % E8         :  37.121201311 

-------------------------   ----------------
Dispersion correction           -0.009084061
-------------------------   ----------------


-------------------------   --------------------
FINAL SINGLE POINT ENERGY      -732.260010073121
-------------------------   --------------------



           ************************************************************
           *        Program running with 24 parallel MPI-processes    *
           *              working on a common directory               *
           ************************************************************
------------------------------------------------------------------------------
                         ORCA SCF GRADIENT CALCULATION
------------------------------------------------------------------------------

Nuc. rep. gradient        (SHARK) ... done (  0.0 sec)
HCore & Overlap gradient  (SHARK) ... done (  0.1 sec)
Split-RIJ-J gradient      (SHARK) ... done (  0.4 sec)
XC gradient                       ... done (  1.1 sec)
CPCM gradient                     ... done (  0.4 sec)
Dispersion correction             ... done (  0.1 sec)

-------------------
DISPERSION GRADIENT
-------------------

   1   Al  :   -0.000049241    0.000289812    0.000174846
   2   Al  :   -0.000008164    0.000000508   -0.000345827
   3   H   :    0.000068534   -0.000088550   -0.000054998
   4   H   :   -0.000070964   -0.000035959   -0.000162752
   5   H   :   -0.000074958    0.000090074   -0.000057020
   6   H   :   -0.000080259    0.000110394    0.000076268
   7   H   :    0.000026683   -0.000005188    0.000139202
   8   H   :    0.000068742    0.000035773   -0.000164907
   9   Al  :    0.000049476   -0.000288922    0.000176493
  10   H   :    0.000074534   -0.000106626    0.000076211
  11   H   :   -0.000087528   -0.000172935    0.000071251
  12   H   :    0.000083144    0.000171619    0.000071232

Difference to translation invariance:
           :   -0.0000000000    0.0000000000   -0.0000000000

Difference to rotation invariance:
           :   -0.0000000000   -0.0000000000    0.0000000000

Norm of the Dispersion gradient    ...    0.0007769585
RMS gradient                       ...    0.0001294931
MAX gradient                       ...    0.0003458273

------------------
CARTESIAN GRADIENT
------------------

   1   Al  :   -0.006146366    0.005693626   -0.002519088
   2   Al  :   -0.001236245    0.001237981    0.000035803
   3   H   :    0.000203135    0.000567950    0.001477083
   4   H   :    0.000254700   -0.000170359   -0.000055522
   5   H   :    0.000105219    0.000450744   -0.001316027
   6   H   :   -0.000200351    0.002141853   -0.000862263
   7   H   :    0.010164196   -0.012478594    0.001152566
   8   H   :    0.000181869   -0.000210377    0.000060648
   9   Al  :   -0.004148469    0.003637505    0.001295660
  10   H   :   -0.000373264    0.002796941    0.000857640
  11   H   :    0.000621800   -0.001818392   -0.000890561
  12   H   :    0.000573776   -0.001848878    0.000764061

Difference to translation invariance:
           :   -0.0000000000    0.0000000000   -0.0000000000

Difference to rotation invariance:
           :    0.0000189044    0.0000408487   -0.0001499047

Norm of the Cartesian gradient     ...    0.0199908493
RMS gradient                       ...    0.0033318082
MAX gradient                       ...    0.0124785935

-------
TIMINGS
-------

Total SCF gradient time     ....        2.068 sec

Densities                   ....       0.001 sec  (  0.1%)
One electron gradient       ....       0.073 sec  (  3.5%)
RI-J Coulomb gradient       ....       0.359 sec  ( 17.4%)
XC gradient                 ....       1.111 sec  ( 53.7%)
CPCM gradient               ....       0.393 sec  ( 19.0%)
   A-Matrix (El+Nuc)        ....       0.005 sec  (  0.3%)
   Potential                ....       0.387 sec  ( 18.7%)

Maximum memory used throughout the entire SCFGRAD-calculation: 29.2 MB
------------------------------------------------------------------------------
                         ORCA GEOMETRY RELAXATION STEP
------------------------------------------------------------------------------

Reading the OPT-File                    .... done
Getting information on internals        .... done
Copying old internal coords+grads       .... done
Making the new internal coordinates     .... (2022 redundants) done
Validating the new internal coordinates .... (2022 redundants) done
Calculating the B-matrix                .... done
Calculating the G,G- and P matrices     .... done
Transforming gradient to internals      .... done
Projecting the internal gradient        .... done
Number of atoms                         ....  12
Number of internal coordinates          .... 117
Current Energy                          ....  -732.260010073 Eh
Current gradient norm                   ....     0.019990849 Eh/bohr
Maximum allowed component of the step   ....  0.300
Current trust radius                    ....  0.300
Evaluating the initial hessian          ....  (Almloef) done
Projecting the Hessian                  .... done
Forming the augmented Hessian           .... done
Diagonalizing the augmented Hessian     .... done
Last element of RFO vector              ....  0.995797651
Lowest eigenvalues of augmented Hessian:
 -0.000940853  0.019671241  0.023634078  0.032262069  0.059288751
Length of the computed step             ....  0.091967251
The final length of the internal step   ....  0.091967251
Converting the step to Cartesian space:
 Initial RMS(Int)=    0.0085023754
Transforming coordinates:
 Iter   0:  RMS(Cart)=    0.0096151053 RMS(Int)=    0.0085340405
done
Storing new coordinates                 .... done

                                .--------------------.
          ----------------------|Geometry convergence|-------------------------
          Item                value                   Tolerance       Converged
          ---------------------------------------------------------------------
          RMS gradient        0.0012446801            0.0000300000      NO
          MAX gradient        0.0083255439            0.0001000000      NO
          RMS step            0.0085023754            0.0006000000      NO
          MAX step            0.0412959125            0.0010000000      NO
          -------------------------------------------------------------------------
          ........................................................
          Max(Bonds)      0.0219      Max(Angles)    0.97
          Max(Dihed)        1.19      Max(Improp)    0.00
          ---------------------------------------------------------------------

The optimization has not yet converged - more geometry cycles are needed


    ---------------------------------------------------------------------------
                         Redundant Internal Coordinates
                            (Angstroem and degrees)

        Definition                    Value    dE/dq     Step     New-Value
    ----------------------------------------------------------------------------
     1. B(Al  1,Al  0)                3.0594 -0.000918  0.0020    3.0614   
     2. B(H   2,Al  1)                1.7196  0.000542 -0.0023    1.7173   
     3. B(H   3,Al  1)                1.5876 -0.000057  0.0001    1.5876   
     4. B(H   4,Al  1)                1.7197 -0.000492  0.0016    1.7213   
     5. B(H   4,Al  0)                1.7194  0.000386 -0.0005    1.7190   
     6. B(H   5,Al  0)                1.5878  0.000668 -0.0009    1.5869   
     7. B(H   6,Al  0)                1.8022  0.008326 -0.0219    1.7803   
     8. B(H   7,Al  1)                1.5875 -0.000019  0.0000    1.5876   
     9. B(Al  8,H   6)                1.6748 -0.005629  0.0109    1.6857   
    10. B(Al  8,H   2)                1.7194 -0.000865  0.0005    1.7199   
    11. B(Al  8,Al  1)                3.0630  0.000752 -0.0034    3.0596   
    12. B(Al  8,Al  0)                3.0692  0.000674 -0.0045    3.0647   
    13. B(H   9,Al  8)                1.5877 -0.001051  0.0014    1.5891   
    14. B(H  10,Al  8)                1.5887  0.000304 -0.0004    1.5883   
    15. B(H  11,Al  0)                1.5887 -0.000325  0.0004    1.5891   
    16. A(H   4,Al  0,H   6)          101.22 -0.000035   -0.09    101.13   
    17. A(Al  1,Al  0,H   4)           27.18  0.000208   -0.02     27.16   
    18. A(Al  1,Al  0,Al  8)           59.97  0.000173   -0.05     59.93   
    19. A(Al  8,Al  0,H  11)          103.82 -0.001402    0.29    104.11   
    20. A(H   4,Al  0,H   5)          104.62 -0.000067   -0.02    104.60   
    21. A(H   6,Al  0,H  11)           97.27 -0.001570    0.80     98.07   
    22. A(Al  1,Al  0,H   5)          131.62  0.000190   -0.04    131.58   
    23. A(Al  1,Al  0,H  11)           89.00 -0.000495    0.04     89.04   
    24. A(H   5,Al  0,H  11)          128.39  0.000137    0.06    128.45   
    25. A(H   5,Al  0,H   6)          113.75  0.001554   -0.79    112.96   
    26. A(H   4,Al  0,Al  8)           74.36  0.000495   -0.14     74.22   
    27. A(Al  1,Al  0,H   6)           85.44 -0.000463    0.21     85.65   
    28. A(H   5,Al  0,Al  8)          122.71  0.001143   -0.30    122.41   
    29. A(H   4,Al  0,H  11)          108.57 -0.000063   -0.00    108.57   
    30. A(H   6,Al  0,Al  8)           26.93 -0.000557    0.10     27.03   
    31. A(H   2,Al  1,H   7)          104.80 -0.000182    0.08    104.88   
    32. A(H   3,Al  1,H   4)          104.81  0.000079   -0.08    104.73   
    33. A(Al  0,Al  1,H   3)          127.33  0.000368   -0.06    127.27   
    34. A(H   2,Al  1,H   4)           95.94  0.000123   -0.06     95.88   
    35. A(H   4,Al  1,Al  8)           74.55  0.000557   -0.20     74.35   
    36. A(H   3,Al  1,Al  8)           98.96  0.000421    0.04     99.00   
    37. A(H   2,Al  1,H   3)          109.58  0.000279    0.02    109.60   
    38. A(H   2,Al  1,Al  8)           27.04 -0.000462    0.09     27.13   
    39. A(Al  0,Al  1,Al  8)           60.17  0.000151   -0.08     60.09   
    40. A(H   7,Al  1,Al  8)          127.35 -0.000504    0.07    127.42   
    41. A(Al  0,Al  1,H   4)           27.17  0.000347   -0.05     27.12   
    42. A(H   4,Al  1,H   7)          109.58 -0.000147   -0.00    109.58   
    43. A(Al  0,Al  1,H   7)           99.09 -0.000242   -0.04     99.05   
    44. A(Al  0,Al  1,H   2)           74.31 -0.000233    0.04     74.35   
    45. A(H   3,Al  1,H   7)          127.65 -0.000088    0.02    127.67   
    46. A(Al  1,H   2,Al  8)          125.91  0.000704   -0.13    125.79   
    47. A(Al  0,H   4,Al  1)          125.65 -0.000555    0.07    125.72   
    48. A(Al  0,H   6,Al  8)          123.90 -0.001188    0.38    124.29   
    49. A(Al  1,Al  8,H   2)           27.05 -0.000241    0.04     27.09   
    50. A(Al  0,Al  8,H   2)           74.02 -0.000534    0.20     74.22   
    51. A(Al  0,Al  8,Al  1)           59.86 -0.000325    0.13     59.98   
    52. A(H   6,Al  8,H  10)          117.26  0.003032   -0.90    116.36   
    53. A(H   2,Al  8,H  10)          108.60 -0.000737   -0.01    108.59   
    54. A(Al  1,Al  8,H  10)           89.25  0.000036   -0.06     89.19   
    55. A(Al  0,Al  8,H  10)          104.58  0.001758   -0.18    104.40   
    56. A(H   6,Al  8,H   9)           97.61 -0.003742    0.97     98.59   
    57. A(H   9,Al  8,H  10)          128.38  0.000491   -0.10    128.29   
    58. A(H   2,Al  8,H   9)          104.59  0.000361   -0.06    104.53   
    59. A(Al  1,Al  8,H   9)          131.44 -0.000016   -0.00    131.43   
    60. A(Al  0,Al  8,H   9)          122.08 -0.002034    0.27    122.36   
    61. A(H   2,Al  8,H   6)           94.91  0.000536    0.24     95.15   
    62. A(Al  1,Al  8,H   6)           87.46  0.001230   -0.16     87.29   
    63. A(Al  0,Al  8,H   6)           29.17  0.001745   -0.49     28.68   
    64. D(H   2,Al  1,Al  0,H   4)   -141.50 -0.000250    0.21   -141.29   
    65. D(H   3,Al  1,Al  0,H   6)     87.04  0.000626   -0.44     86.60   
    66. D(H   3,Al  1,Al  0,H   5)    -30.96 -0.001163    0.46    -30.50   
    67. D(H   3,Al  1,Al  0,Al  8)     77.79  0.000477    0.03     77.82   
    68. D(H   2,Al  1,Al  0,Al  8)    -25.13  0.000333   -0.04    -25.16   
    69. D(H   3,Al  1,Al  0,H   4)    -38.59 -0.000107    0.28    -38.31   
    70. D(H   2,Al  1,Al  0,H   6)    -15.87  0.000482   -0.50    -16.38   
    71. D(H   2,Al  1,Al  0,H   5)   -133.88 -0.001307    0.40   -133.48   
    72. D(H   2,Al  1,Al  0,H  11)     81.50 -0.001040    0.29     81.78   
    73. D(H   3,Al  1,Al  0,H  11)   -175.59 -0.000897    0.35   -175.23   
    74. D(Al  8,H   2,Al  1,H   7)    149.60  0.000123   -0.25    149.35   
    75. D(Al  8,H   2,Al  1,H   3)    -70.52  0.000080   -0.14    -70.66   
    76. D(Al  8,H   2,Al  1,Al  0)     54.13  0.000390   -0.20     53.93   
    77. D(Al  8,H   2,Al  1,H   4)     37.52  0.000279   -0.24     37.28   
    78. D(Al  1,H   4,Al  0,H   5)   -174.12 -0.000833    0.15   -173.97   
    79. D(Al  0,H   4,Al  1,H   7)    -70.99 -0.000097    0.15    -70.84   
    80. D(Al  0,H   4,Al  1,Al  8)     53.75 -0.000486    0.18     53.92   
    81. D(Al  0,H   4,Al  1,H   3)    149.14  0.000076    0.19    149.33   
    82. D(Al  0,H   4,Al  1,H   2)     37.05 -0.000277    0.21     37.26   
    83. D(Al  1,H   4,Al  0,H  11)     46.00 -0.000908    0.08     46.08   
    84. D(Al  1,H   4,Al  0,Al  8)    -53.65  0.000445   -0.19    -53.84   
    85. D(Al  1,H   4,Al  0,H   6)    -55.69  0.000833   -0.75    -56.45   
    86. D(Al  8,H   6,Al  0,H   4)      4.34 -0.000733    1.19      5.53   
    87. D(Al  8,H   6,Al  0,Al  1)    -17.90 -0.000682    1.00    -16.90   
    88. D(Al  8,H   6,Al  0,H   5)    115.95 -0.000228    0.82    116.77   
    89. D(Al  8,H   6,Al  0,H  11)   -106.31 -0.000252    1.00   -105.31   
    90. D(Al  1,Al  8,Al  0,H  11)    -80.62 -0.000341    0.15    -80.47   
    91. D(Al  1,Al  8,Al  0,H   6)   -159.27  0.000747   -1.16   -160.43   
    92. D(Al  1,Al  8,Al  0,H   5)    122.71 -0.000014    0.02    122.73   
    93. D(H   2,Al  8,Al  0,Al  1)     25.17 -0.000089   -0.03     25.14   
    94. D(Al  1,Al  8,Al  0,H   4)     25.15 -0.000010    0.06     25.21   
    95. D(H   9,Al  8,H   6,Al  0)    149.33  0.000492   -0.93    148.40   
    96. D(H   2,Al  8,H   6,Al  0)     43.86  0.000510   -1.03     42.83   
    97. D(Al  1,Al  8,H   6,Al  0)     17.84  0.000557   -0.96     16.89   
    98. D(H  10,Al  8,H   2,Al  1)     46.38  0.001783   -0.05     46.33   
    99. D(H   9,Al  8,H   2,Al  1)   -173.75  0.002142   -0.23   -173.98   
   100. D(H   6,Al  8,H   2,Al  1)    -74.55 -0.001560    0.84    -73.71   
   101. D(H   6,Al  8,Al  1,H   2)    106.00 -0.001152    0.86    106.85   
   102. D(H   6,Al  8,Al  1,Al  0)     -9.94 -0.000885    0.69     -9.26   
   103. D(H   2,Al  8,Al  1,H   7)    -37.98  0.000427   -0.36    -38.34   
   104. D(H   2,Al  8,Al  1,H   4)   -141.06  0.000158   -0.21   -141.27   
   105. D(H   2,Al  8,Al  1,H   3)    115.94  0.000126   -0.10    115.85   
   106. D(H   2,Al  8,Al  1,Al  0)   -115.94  0.000268   -0.17   -116.11   
   107. D(Al  0,Al  8,Al  1,H   7)     77.96  0.000159   -0.19     77.77   
   108. D(Al  0,Al  8,Al  1,H   4)    -25.12 -0.000109   -0.04    -25.16   
   109. D(Al  0,Al  8,H   2,Al  1)    -53.99 -0.000130    0.09    -53.90   
   110. D(Al  0,Al  8,Al  1,H   3)   -128.12 -0.000142    0.07   -128.04   
   111. D(Al  0,Al  8,Al  1,H   2)    115.94 -0.000268    0.17    116.11   
   112. D(H   6,Al  8,Al  0,Al  1)    159.27 -0.000747    1.16    160.43   
   113. D(H   2,Al  8,Al  0,H  11)    -55.45 -0.000431    0.12    -55.33   
   114. D(H   2,Al  8,Al  0,H   6)   -134.10  0.000658   -1.19   -135.28   
   115. D(H   2,Al  8,Al  0,H   5)    147.89 -0.000103   -0.01    147.87   
   116. D(H  10,Al  8,H   6,Al  0)    -70.00  0.000074   -0.87    -70.86   
   117. D(H   2,Al  8,Al  0,H   4)     50.32 -0.000099    0.03     50.35   
    ----------------------------------------------------------------------------

Geometry step timings:
Preparation and reading OPT file:      0.000 s ( 0.345 %)
Internal coordinates            :      0.000 s ( 0.503 %)
B/P matrices and projection     :      0.002 s (17.598 %)
Hessian update/contruction      :      0.001 s ( 8.183 %)
Making the step                 :      0.007 s (51.269 %)
Converting the step to Cartesian:      0.001 s ( 4.520 %)
Storing new data                :      0.000 s ( 0.886 %)
Checking convergence            :      0.000 s ( 0.901 %)
Final printing                  :      0.002 s (15.773 %)
Total time                      :      0.013 s

Time for energy+gradient        :     15.573 s
Time for complete geometry iter :     16.364 s

         *************************************************************
         *                GEOMETRY OPTIMIZATION CYCLE   2            *
         *************************************************************
---------------------------------
CARTESIAN COORDINATES (ANGSTROEM)
---------------------------------
  Al    -0.227208    1.514480    2.567300
  Al     0.002567   -0.003392   -0.081392
  H      0.871351   -0.940033    1.066241
  H     -1.107298   -0.903627   -0.773030
  H     -0.856350    0.939456    1.074547
  H     -1.471085    2.176376    3.297265
  H      0.295912   -0.007418    3.328744
  H      1.102339    0.895996   -0.789888
  Al     0.258982   -1.511443    2.568379
  H      1.514215   -2.170913    3.285853
  H     -1.177750   -2.142242    2.322437
  H      1.210655    2.137819    2.303915

----------------------------
CARTESIAN COORDINATES (A.U.)
----------------------------
  NO LB      ZA    FRAG     MASS         X           Y           Z
   0 Al   13.0000    0    26.982   -0.429361    2.861952    4.851493
   1 Al   13.0000    0    26.982    0.004851   -0.006410   -0.153809
   2 H     1.0000    0     1.008    1.646615   -1.776404    2.014904
   3 H     1.0000    0     1.008   -2.092491   -1.707607   -1.460815
   4 H     1.0000    0     1.008   -1.618267    1.775314    2.030600
   5 H     1.0000    0     1.008   -2.779949    4.112755    6.230928
   6 H     1.0000    0     1.008    0.559192   -0.014018    6.290415
   7 H     1.0000    0     1.008    2.083120    1.693188   -1.492673
   8 Al   13.0000    0    26.982    0.489405   -2.856213    4.853533
   9 H     1.0000    0     1.008    2.861452   -4.102430    6.209361
  10 H     1.0000    0     1.008   -2.225625   -4.048251    4.388770
  11 H     1.0000    0     1.008    2.287807    4.039893    4.353768

--------------------------------
INTERNAL COORDINATES (ANGSTROEM)
--------------------------------
 Al     0   0   0     0.000000000000     0.00000000     0.00000000
 Al     1   0   0     3.061421314101     0.00000000     0.00000000
 H      2   1   0     1.717307266404    74.34813100     0.00000000
 H      2   1   3     1.587635347946   127.27032396   102.98206875
 H      1   2   3     1.718947591404    27.16170357   218.71067896
 H      1   2   3     1.586879695146   131.57659605   226.51822642
 H      1   2   3     1.780343859318    85.64992000   343.61840390
 H      2   1   3     1.587565810048    99.04569191   256.97315857
 Al     7   1   2     1.685707694592   124.28746004   343.09690610
 H      9   7   1     1.589112322077    98.58680552   148.40105480
 H      9   7   1     1.588267761817   116.36071685   289.13380084
 H      1   2   3     1.589143040180    89.03586293    81.78429764

---------------------------
INTERNAL COORDINATES (A.U.)
---------------------------
 Al     0   0   0     0.000000000000     0.00000000     0.00000000
 Al     1   0   0     5.785247864200     0.00000000     0.00000000
 H      2   1   0     3.245240421296    74.34813100     0.00000000
 H      2   1   3     3.000196008151   127.27032396   102.98206875
 H      1   2   3     3.248340186316    27.16170357   218.71067896
 H      1   2   3     2.998768031306   131.57659605   226.51822642
 H      1   2   3     3.364362318319    85.64992000   343.61840390
 H      2   1   3     3.000064600568    99.04569191   256.97315857
 Al     7   1   2     3.185525884623   124.28746004   343.09690610
 H      9   7   1     3.002987084765    98.58680552   148.40105480
 H      9   7   1     3.001391097171   116.36071685   289.13380084
 H      1   2   3     3.003045133567    89.03586293    81.78429764



           ************************************************************
           *        Program running with 24 parallel MPI-processes    *
           *              working on a common directory               *
           ************************************************************
------------------------------------------------------------------------------
                   ___                                                        
                  /   \      - P O W E R E D   B Y -                         
                 /     \                                                     
                 |  |  |   _    _      __       _____    __    __             
                 |  |  |  | |  | |    /  \     |  _  \  |  |  /  |          
                  \  \/   | |  | |   /    \    | | | |  |  | /  /          
                 / \  \   | |__| |  /  /\  \   | |_| |  |  |/  /          
                |  |  |   |  __  | /  /__\  \  |    /   |      \           
                |  |  |   | |  | | |   __   |  |    \   |  |\   \          
                \     /   | |  | | |  |  |  |  | |\  \  |  | \   \       
                 \___/    |_|  |_| |__|  |__|  |_| \__\ |__|  \__/        
                                                                              
                      - O R C A' S   B I G   F R I E N D -                    
                                      &                                       
                       - I N T E G R A L  F E E D E R -                       
                                                                              
 v1 FN, 2020, v2 2021, v3 2022-2024                                           
------------------------------------------------------------------------------


----------------------
SHARK INTEGRAL PACKAGE
----------------------

Number of atoms                             ...     12
Number of basis functions                   ...    165
Number of shells                            ...     75
Maximum angular momentum                    ...      3
Integral batch strategy                     ... SHARK/LIBINT Hybrid
RI-J (if used) integral strategy            ... SPLIT-RIJ (Revised 2003 algorithm where possible)
Printlevel                                  ...      1
Contraction scheme used                     ... SEGMENTED contraction
Prescreening option                         ... SCHWARTZ
   Thresh                                   ... 2.500e-11
   Tcut                                     ... 2.500e-12
   Tpresel                                  ... 2.500e-12 
Coulomb Range Separation                    ... NOT USED
Exchange Range Separation                   ... NOT USED
Multipole approximations                    ... NOT USED
Finite Nucleus Model                        ... NOT USED
CABS basis                                  ... NOT available
Auxiliary Coulomb fitting basis             ... AVAILABLE
   # of basis functions in Aux-J            ...    252
   # of shells in Aux-J                     ...     96
   Maximum angular momentum in Aux-J        ...      4
Auxiliary J/K fitting basis                 ... NOT available
Auxiliary Correlation fitting basis         ... NOT available
Auxiliary 'external' fitting basis          ... NOT available

Checking pre-screening integrals            ... done (  0.0 sec) Dimension = 75
   => SHARK Basis and OBASIS are compatible. Storing Pre-screening
Shell pair information
Shell pair cut-off parameter TPreSel        ...   2.5e-12
Total number of shell pairs                 ...      2850
Shell pairs after pre-screening             ...      2637
Total number of primitive shell pairs       ...      9315
Primitive shell pairs kept                  ...      6539
          la=0 lb=0:    835 shell pairs
          la=1 lb=0:    899 shell pairs
          la=1 lb=1:    264 shell pairs
          la=2 lb=0:    252 shell pairs
          la=2 lb=1:    144 shell pairs
          la=2 lb=2:     21 shell pairs
          la=3 lb=0:    126 shell pairs
          la=3 lb=1:     72 shell pairs
          la=3 lb=2:     18 shell pairs
          la=3 lb=3:      6 shell pairs

Checking whether 4 symmetric matrices of dimension 165 fit in memory
:Max Core in MB      =   4096.00
 MB in use           =      6.84
 MB left             =   4089.16
 MB needed           =      0.42
 Data fit in memory  = YES
Calculating RI/J V-Matrix + Cholesky decomp.... done (  0.0 sec)
Calculating Nuclear repulsion               ... done (  0.0 sec) ENN=    171.006297004203 Eh

Diagonalization of the overlap matrix:
Smallest eigenvalue                        ... 1.916e-03
Time for diagonalization                   ...    0.009 sec
Threshold for overlap eigenvalues          ... 1.000e-07
Number of eigenvalues below threshold      ... 0
Time for construction of square roots      ...    0.004 sec
Total time needed                          ...    0.015 sec

-------------------
DFT GRID GENERATION
-------------------

General Integration Accuracy     IntAcc      ... 4.959
Radial Grid Type                 RadialGrid  ... OptM3 with GC (2021)
Angular Grid (max. ang.)         AngularGrid ... 6 (Lebedev-590)
Angular grid pruning method      GridPruning ... 4 (adaptive)
Weight generation scheme         WeightScheme... mBecke (2022)
[...]
     10      -0.041808   0.014082  -0.022372  -0.037730  -0.069876  -0.001620
     11      -0.063535   0.011882   0.017281  -0.001600  -0.028759  -0.003702
     12       0.795077  -0.235352   0.443969  -0.029706   0.060838  -0.016527
     13      -0.104292   0.099055  -0.188724   0.276164  -0.376257   0.152105
     14       0.129009  -0.051335   0.152786   0.481211  -0.630747   0.273381
     15       0.068427  -0.015059   0.008957  -0.039987   0.083273  -0.129673
     16      -0.002235  -0.044814   0.005146   0.020317  -0.020213   0.018617
     17       0.113871   0.022670   0.003749  -0.036390  -0.000865   0.087749
     18       0.080392   0.118464  -0.057155   0.043273  -0.016594  -0.142946
     19       0.008674   0.015390  -0.007158  -0.369089   0.122668   0.871922
     20       0.476676   0.734717  -0.409215   0.000856   0.027449   0.001610
     21       0.016618  -0.062024  -0.036795   0.066178   0.101837  -0.001461
     22      -0.010515   0.026804   0.036150  -0.022951   0.074931  -0.017361
     23       0.034499  -0.051202   0.002465  -0.004207  -0.028376   0.010138
     24      -0.006525   0.011430   0.010936  -0.003061  -0.002508   0.000519
     25      -0.011161  -0.011423   0.009189   0.000065  -0.007735  -0.019023
     26      -0.004392  -0.028693  -0.007293   0.012614   0.010079  -0.000460
     27       0.031196  -0.042908  -0.030085  -0.050790  -0.086788  -0.122956
     28       0.049054   0.034710  -0.016092   0.029144   0.025032   0.027547
     29       0.005693   0.115550   0.026387   0.041312  -0.017604  -0.081971
     30      -0.007547   0.003081   0.000068   0.003487   0.064837   0.117282
     31      -0.030158   0.004589   0.035321   0.019289   0.017145   0.013979
     32       0.036344  -0.026429  -0.059598   0.038837   0.016477   0.000733
     33       0.004700   0.016272  -0.001133  -0.014821  -0.042304   0.131163
     34      -0.036851   0.014101  -0.018482   0.014503  -0.025298   0.029630
     35      -0.036885   0.046770  -0.044397  -0.034227   0.030193  -0.011449
                 30         31         32         33         34         35    
      0       0.003175  -0.005251  -0.004900   0.008769   0.034259  -0.023466
      1       0.009918  -0.013561  -0.001992   0.000259  -0.001140  -0.001984
      2       0.000298  -0.005252   0.003193  -0.002772  -0.013991   0.009068
      3       0.001924   0.005019   0.002940   0.013942  -0.020301  -0.026172
      4       0.002755   0.006940   0.003528   0.009915  -0.014919  -0.020666
      5      -0.003448   0.005644  -0.017657  -0.000166  -0.001455  -0.000096
      6       0.008189   0.007357  -0.008903  -0.011939  -0.006219  -0.007473
      7      -0.058519  -0.037906   0.057144   0.035708  -0.005058  -0.004957
      8       0.101868   0.061802  -0.105380  -0.060279   0.001826   0.001251
      9      -0.015964  -0.208755   0.424010  -0.160192   0.330276   0.363874
     10      -0.013197  -0.161532   0.333361  -0.126217   0.261173   0.283883
     11      -0.011892  -0.127449   0.254823  -0.104860   0.209201   0.226919
     12      -0.001079   0.007742   0.009822   0.005997   0.008631  -0.008318
     13       0.029055  -0.047987  -0.079626   0.007748  -0.040565  -0.006438
     14       0.053051  -0.074661  -0.139248   0.005074  -0.067074  -0.003491
     15       0.190291  -0.434385  -0.034778  -0.080479  -0.550630   0.284111
     16      -0.084263   0.197504   0.015472   0.038222   0.261188  -0.134502
     17      -0.114731   0.255237   0.021872   0.050311   0.333481  -0.169907
     18       0.011524   0.030928   0.006851  -0.016345   0.013364  -0.009659
     19      -0.082499  -0.211994  -0.049882   0.060804  -0.036990   0.008900
     20      -0.000034  -0.000804  -0.001431  -0.002768  -0.002844   0.000707
     21      -0.054097   0.028185  -0.513700  -0.203647   0.207107   0.343063
     22      -0.042712   0.023992  -0.418287  -0.168660   0.169746   0.278586
     23       0.034003  -0.015104   0.324360   0.135144  -0.140765  -0.223156
     24      -0.010613  -0.006480   0.000573  -0.037241  -0.003416  -0.019616
     25      -0.015386  -0.002449  -0.001659   0.006147   0.000062   0.000453
     26       0.002948   0.001321   0.003821  -0.013735  -0.000540  -0.006205
     27      -0.384509  -0.128531  -0.063387   0.606773   0.015671   0.224743
     28       0.219219   0.075186   0.036693  -0.362204  -0.009141  -0.133977
     29      -0.211415  -0.067987  -0.032529   0.342189   0.009429   0.125311
     30       0.692724   0.307388   0.025808   0.402677   0.076208   0.308480
     31       0.257580   0.114299   0.010995   0.158996   0.029193   0.117677
     32       0.093638   0.043415   0.002650   0.048445   0.011525   0.040186
     33      -0.299476   0.569724   0.191400  -0.153935  -0.376615   0.354980
     34      -0.152039   0.291220   0.097424  -0.081272  -0.201352   0.184989
     35       0.060890  -0.120316  -0.040226   0.033025   0.073104  -0.071894


-----------
IR SPECTRUM
-----------

 Mode   freq       eps      Int      T**2         TX        TY        TZ
       cm**-1   L/(mol*cm) km/mol    a.u.
----------------------------------------------------------------------------
  7:    124.89   0.000583    2.95  0.001457  ( 0.010408 -0.001573  0.036694)
  8:    148.12   0.000112    0.56  0.000235  ( 0.009904  0.011051 -0.003870)
  9:    223.79   0.000973    4.92  0.001357  (-0.001130 -0.001349 -0.036796)
 10:    295.85   0.003520   17.79  0.003713  ( 0.052105 -0.031155  0.005210)
 11:    321.96   0.000192    0.97  0.000187  (-0.004072  0.001209 -0.012982)
 12:    398.97   0.001668    8.43  0.001305  (-0.025962  0.025116 -0.000095)
 13:    413.48   0.000199    1.01  0.000151  (-0.001562 -0.000912  0.012136)
 14:    428.45   0.003082   15.58  0.002245  ( 0.000922 -0.004740 -0.047134)
 15:    468.67   0.000334    1.69  0.000223  (-0.014370 -0.000744 -0.003933)
 16:    489.37   0.016016   80.94  0.010213  ( 0.085879 -0.053261  0.001001)
 17:    553.43   0.042021  212.35  0.023694  (-0.012864 -0.009052 -0.153123)
 18:    646.71   0.198155  1001.39  0.095618  ( 0.006594  0.304724 -0.052128)
 19:    651.25   0.138561  700.23  0.066395  (-0.007345  0.059801  0.250530)
 20:    696.80   0.002445   12.36  0.001095  (-0.016267  0.004739  0.028427)
 21:    702.55   0.034730  175.51  0.015426  (-0.095913  0.076324  0.020046)
 22:    719.15   0.027962  141.31  0.012134  ( 0.046001  0.090358 -0.043044)
 23:    730.34   0.031774  160.57  0.013577  ( 0.037397  0.014834  0.109353)
 24:   1041.95   0.051211  258.80  0.015338  (-0.100116  0.027591 -0.067477)
 25:   1055.83   0.044028  222.50  0.013013  ( 0.061371 -0.028891 -0.091717)
 26:   1105.48   0.002463   12.45  0.000695  ( 0.024849 -0.008715  0.001344)
 27:   1701.13   0.014748   74.53  0.002705  ( 0.006951 -0.044235  0.026466)
 28:   1743.18   0.235726  1191.26  0.042200  ( 0.003545 -0.009210  0.205188)
 29:   1763.13   0.247379  1250.15  0.043785  ( 0.028146 -0.206498 -0.018733)
 30:   1892.83   0.000683    3.45  0.000113  (-0.010038 -0.001924 -0.002853)
 31:   1895.13   0.001568    7.92  0.000258  (-0.012614 -0.008873  0.004507)
 32:   1895.68   0.002002   10.12  0.000330  (-0.002493  0.002668 -0.017783)
 33:   1902.77   0.014358   72.56  0.002355  (-0.026396  0.027225 -0.030279)
 34:   1903.39   0.011607   58.66  0.001903  ( 0.019294 -0.027060 -0.028257)
 35:   1908.88   0.112422  568.14  0.018379  (-0.128738 -0.042169  0.005208)

* The epsilon (eps) is given for a Dirac delta lineshape.
** The dipole moment derivative (T) already includes vibrational overlap.

The first frequency considered to be a vibration is 7
The total number of vibrations considered is 29


--------------------------
THERMOCHEMISTRY AT 298.15K
--------------------------

Temperature         ...   298.15 K
Pressure            ...     1.00 atm
Total Mass          ...    90.02 AMU
Quasi RRHO          ...     True
Cut-Off Frequency   ...     1.00 cm^-1

Throughout the following assumptions are being made:
  (1) The electronic state is orbitally nondegenerate
  (2) There are no thermally accessible electronically excited states
  (3) Hindered rotations indicated by low frequency modes are not
      treated as such but are treated as vibrations and this may
      cause some error
  (4) All equations used are the standard statistical mechanics
      equations for an ideal gas
  (5) All vibrations are strictly harmonic

freq.     124.89  E(vib)   ...       0.43 
freq.     148.12  E(vib)   ...       0.41 
freq.     223.79  E(vib)   ...       0.33 
freq.     295.85  E(vib)   ...       0.27 
freq.     321.96  E(vib)   ...       0.25 
freq.     398.97  E(vib)   ...       0.19 
freq.     413.48  E(vib)   ...       0.19 
freq.     428.45  E(vib)   ...       0.18 
freq.     468.67  E(vib)   ...       0.16 
freq.     489.37  E(vib)   ...       0.15 
freq.     553.43  E(vib)   ...       0.12 
freq.     646.71  E(vib)   ...       0.09 
freq.     651.25  E(vib)   ...       0.08 
freq.     696.80  E(vib)   ...       0.07 
freq.     702.55  E(vib)   ...       0.07 
freq.     719.15  E(vib)   ...       0.07 
freq.     730.34  E(vib)   ...       0.06 
freq.    1041.95  E(vib)   ...       0.02 
freq.    1055.83  E(vib)   ...       0.02 
freq.    1105.48  E(vib)   ...       0.02 
freq.    1701.13  E(vib)   ...       0.00 
freq.    1743.18  E(vib)   ...       0.00 
freq.    1763.13  E(vib)   ...       0.00 
freq.    1892.83  E(vib)   ...       0.00 
freq.    1895.13  E(vib)   ...       0.00 
freq.    1895.68  E(vib)   ...       0.00 
freq.    1902.77  E(vib)   ...       0.00 
freq.    1903.39  E(vib)   ...       0.00 
freq.    1908.88  E(vib)   ...       0.00 

------------
INNER ENERGY
------------

The inner energy is: U= E(el) + E(ZPE) + E(vib) + E(rot) + E(trans)
    E(el)   - is the total energy from the electronic structure calculation
              = E(kin-el) + E(nuc-el) + E(el-el) + E(nuc-nuc)
    E(ZPE)  - the the zero temperature vibrational energy from the frequency calculation
    E(vib)  - the the finite temperature correction to E(ZPE) due to population
              of excited vibrational states
    E(rot)  - is the rotational thermal energy
    E(trans)- is the translational thermal energy

Summary of contributions to the inner energy U:
Electronic energy                ...   -732.26325087 Eh
Zero point energy                ...      0.06338583 Eh      39.78 kcal/mol
Thermal vibrational correction   ...      0.00503353 Eh       3.16 kcal/mol
Thermal rotational correction    ...      0.00141627 Eh       0.89 kcal/mol
Thermal translational correction ...      0.00141627 Eh       0.89 kcal/mol
-----------------------------------------------------------------------
Total thermal energy                   -732.19199897 Eh


Summary of corrections to the electronic energy:
(perhaps to be used in another calculation)
Total thermal correction                  0.00786608 Eh       4.94 kcal/mol
Non-thermal (ZPE) correction              0.06338583 Eh      39.78 kcal/mol
-----------------------------------------------------------------------
Total correction                          0.07125190 Eh      44.71 kcal/mol


--------
ENTHALPY
--------

The enthalpy is H = U + kB*T
                kB is Boltzmann's constant
Total thermal energy              ...   -732.19199897 Eh 
Thermal Enthalpy correction       ...      0.00094421 Eh       0.59 kcal/mol
-----------------------------------------------------------------------
Total Enthalpy                    ...   -732.19105476 Eh


Note: Only C1 symmetry has been detected, increase convergence thresholds 
      if your molecule has a higher symmetry. Symmetry factor of 1.0 is   
      used for the rotational entropy correction. 
 

Note: Rotational entropy computed according to Herzberg 
Infrared and Raman Spectra, Chapter V,1, Van Nostrand Reinhold, 1945 
Point Group:  C1, Symmetry Number:   1  
Rotational constants in cm-1:     0.106194     0.104104     0.056562 

Vibrational entropy computed according to the QRRHO of S. Grimme
Chem.Eur.J. 2012 18 9955 using a reference frequency of 100.0 cm-1


-------
ENTROPY
-------

The entropy contributions are T*S = T*(S(el)+S(vib)+S(rot)+S(trans))
     S(el)   - electronic entropy
     S(vib)  - vibrational entropy
     S(rot)  - rotational entropy
     S(trans)- translational entropy
The entropies will be listed as multiplied by the temperature to get
units of energy

Electronic entropy                ...      0.00000000 Eh      0.00 kcal/mol
Vibrational entropy               ...      0.00813481 Eh      5.10 kcal/mol
Rotational entropy                ...      0.01299355 Eh      8.15 kcal/mol
Translational entropy             ...      0.01872231 Eh     11.75 kcal/mol
-----------------------------------------------------------------------
Final entropy term                ...      0.03985067 Eh     25.01 kcal/mol

In case the symmetry of your molecule has not been determined correctly
or in case you have a reason to use a different symmetry number we print 
out the resulting rotational entropy values for sn=1,12:

 non-linear molecules -----------------------------------
|  sn= 1 | S(rot)=       0.01299355 Eh      8.15 kcal/mol|
|  sn= 2 | S(rot)=       0.01233909 Eh      7.74 kcal/mol|
|  sn= 3 | S(rot)=       0.01195626 Eh      7.50 kcal/mol|
|  sn= 4 | S(rot)=       0.01168463 Eh      7.33 kcal/mol|
|  sn= 5 | S(rot)=       0.01147395 Eh      7.20 kcal/mol|
|  sn= 6 | S(rot)=       0.01130180 Eh      7.09 kcal/mol|
|  sn= 7 | S(rot)=       0.01115626 Eh      7.00 kcal/mol|
|  sn= 8 | S(rot)=       0.01103018 Eh      6.92 kcal/mol|
|  sn= 9 | S(rot)=       0.01091897 Eh      6.85 kcal/mol|
|  sn=10 | S(rot)=       0.01081949 Eh      6.79 kcal/mol|
|  sn=11 | S(rot)=       0.01072950 Eh      6.73 kcal/mol|
|  sn=12 | S(rot)=       0.01064735 Eh      6.68 kcal/mol|
 linear molecules ---------------------------------------
|  Dinfh | S(rot)=       0.00803789 Eh      5.04 kcal/mol|
|  Cinfv | S(rot)=       0.00869234 Eh      5.45 kcal/mol|
 --------------------------------------------------------


-------------------
GIBBS FREE ENERGY
-------------------

The Gibbs free energy is G = H - T*S

Total enthalpy                    ...   -732.19105476 Eh 
Total entropy correction          ...     -0.03985067 Eh    -25.01 kcal/mol
-----------------------------------------------------------------------
Final Gibbs free energy         ...   -732.23090543 Eh

For completeness - the Gibbs free energy minus the electronic energy
G-E(el)                           ...      0.03234544 Eh     20.30 kcal/mol


Maximum memory used throughout the entire PROP-calculation: 29.5 MB

--------------------------------
SUGGESTED CITATIONS FOR THIS RUN
--------------------------------

Below you find a list of papers that are relevant to this ORCA run
We neither can nor want to force you to cite these papers, but we appreciate if you do
You receive ORCA, which is the product of decades of hard work by many enthusiastic individuals, for free
The only thing we kindly ask in return is that you cite our papers,
We deeply appreciate it, if you show your appreciation for ORCA by not just citing the generic ORCA reference.

Please note that relegating all ORCA citations to the supporting information does *not* help us.
SI sections are not indexed - citations you put there will not count into any citation statistics
But we need these citations in order to attract the funding resources that allow us to do what we are doing

Therefore, if you are a happy ORCA user, please consider citing a few of the papers listed below in the main body of your paper

In addition to the list printed below, the program has created the file run.bibtex that contains the list in bibtex format
You can import this file easily into all common literature databanks and citation aid programs


List of essential papers. We consider these as the minimum necessary citations

  1. Neese, F.
     Software update: the ORCA program system, version 6.0
     WIRES Comput. Molec. Sci. 2025 15(1), e70019
     doi.org/10.1002/wcms.7019

List of papers to cite with high priority. The work reported in these papers was absolutely
necessary for this run to complete.
Our perspective: the developers of density functionals and basis sets usually get cited in chemistry papers
Good! But without the algorithms to do something with them, the functionals or basis sets would not do anything.
Hence, in our opinion, the algorithm design and method developments papers are equally worthy of getting cited

  1. Neese, F.
     An improvement of the resolution of the identity approximation for the formation of the Coulomb matrix
     J. Comp. Chem. 2003 24(14), 1740-1747
     doi.org/10.1002/jcc.10318
  2. Grimme, S.; Antony, J.; Ehrlich, S.; Krieg, H.
     A consistent and accurate ab initio parametrization of density functional dispersion correction (DFT-D) for the 94 elements H-Pu
     J. Chem. Phys. 2010 132 , 154104
     doi.org/10.1063/1.3382344
  3. Grimme, S.; Ehrlich, S.; Goerigk, L.
     Effect of the damping function in dispersion corrected density functional theory
     J. Comput. Chem. 2011 32(7), 1456-1465
     doi.org/10.1002/jcc.21759
  4. Bykov, D.; Petrenko, T.; Izsak, R.; Kossmann, S.; Becker, U.; Valeev, E.; Neese, F.
     Efficient implementation of the analytic second derivatives of Hartree-Fock and hybrid DFT energies: a detailed analysis of different approximations
     Molec. Phys. 2015 113 , 1961-1977
     doi.org/10.1080/00268976.2015.1025114
  5. Garcia-Rates, M.; Neese, F.
     Efficient implementation of the analytical second derivatives of hartree-fock and hybrid DFT energies within the framework of the conductor-like polarizable continuum model
     J. Comput. Chem. 2019 40 , 1816-1828
     doi.org/10.1002/jcc.25833
  6. Garcia-Rates, M.; Neese, F.
     Effect of the Solute Cavity on the Solvation Energy and its Derivatives within the Framework of the Gaussian Charge Scheme
     J. Comput. Chem. 2020 41 , 922-939
     doi.org/10.1002/jcc.26139
  7. Neese, F.
     The SHARK Integral Generation and Digestion System
     J. Comp. Chem. 2022 44(3), 381
     doi.org/10.1002/jcc.26942

List of suggested additional citations. These are papers that are important in the 'surrounding' of 
of this run, or papers that preceded the highly important papers. If you like your results we are grateful for a citation.

  1. Neese, F.
     The ORCA program system
     WIRES Comput. Molec. Sci. 2012 2(1), 73-78
     doi.org/10.1002/wcms.81
  2. Neese, F.
     Software update: the ORCA program system, version 4.0
     WIRES Comput. Molec. Sci. 2018 8(1), 1-6
     doi.org/10.1002/wcms.1327
  3. Neese, F.; Wennmohs, F.; Becker, U.; Riplinger, C.
     The ORCA quantum chemistry program package
     J. Chem. Phys. 2020 152(22), 224108
     doi.org/10.1063/5.0004608
  4. Neese, F.
     Software update: The ORCA program system—Version 5.0
     WIRES Comput. Molec. Sci. 2022 12(1), e1606
     doi.org/10.1002/wcms.1606

List of optional additional citations

  1. Neese, F.
     Approximate second-order SCF convergence for spin unrestricted wavefunctions
     Chem. Phys. Lett. 2000 325(1-3), 93-98
     doi.org/10.1016/s0009-2614(00)00662-x

Timings for individual modules:

Sum of individual times          ...      336.929 sec (=   5.615 min)
Startup calculation              ...      101.578 sec (=   1.693 min)  30.1 %
SCF iterations                   ...       99.715 sec (=   1.662 min)  29.6 %
Property integrals               ...       43.563 sec (=   0.726 min)  12.9 %
SCF Response                     ...       12.407 sec (=   0.207 min)   3.7 %
Property calculations            ...       13.192 sec (=   0.220 min)   3.9 %
SCF Gradient evaluation          ...       66.245 sec (=   1.104 min)  19.7 %
Geometry relaxation              ...        0.228 sec (=   0.004 min)   0.1 %
                             ****ORCA TERMINATED NORMALLY****
TOTAL RUN TIME: 0 days 0 hours 5 minutes 57 seconds 827 msec
