
     Program PWSCF v.7.3.1 starts on  4Jun2025 at  7: 5:37 

     This program is part of the open-source Quantum ESPRESSO suite
     for quantum simulation of materials; please cite
         "P. Giannozzi et al., J. Phys.:Condens. Matter 21 395502 (2009);
         "P. Giannozzi et al., J. Phys.:Condens. Matter 29 465901 (2017);
         "P. Giannozzi et al., J. Chem. Phys. 152 154105 (2020);
          URL http://www.quantum-espresso.org", 
     in publications or presentations arising from this work. More details at
     http://www.quantum-espresso.org/quote

     Parallel version (MPI), running on   256 processors

     MPI processes distributed on     1 nodes
     1533534 MiB available memory on the printing compute node when the environment starts

     Waiting for input...
     Reading input from standard input

     Current dimensions of program PWSCF are:
     Max number of different atomic species (ntypx) = 10
     Max number of k-points (npk) =  40000
     Max angular momentum in pseudopotentials (lmaxx) =  4
     file H.pbe-kjpaw_psl.1.0.0.UPF: wavefunction(s)  1S renormalized
     file Zr.pbe-spn-kjpaw_psl.1.0.0.UPF: wavefunction(s)  4S 4P renormalized
     file C.pbe-n-kjpaw_psl.1.0.0.UPF: wavefunction(s)  2S 2P renormalized
     file O.pbe-n-kjpaw_psl.1.0.0.UPF: wavefunction(s)  2S 2P renormalized
     file N.pbe-n-kjpaw_psl.1.0.0.UPF: wavefunction(s)  2S renormalized

     IMPORTANT: XC functional enforced from input :
     Exchange-correlation= PBE
                           (   1   4   3   4   0   0   0)
     Any further DFT definition will be discarded
     Please, verify this is what you really want


     gamma-point specific algorithms are used

     R & G space division:  proc/nbgrp/npool/nimage =     256
     WARNING: too many processors for an effective parallelization!
     wavefunctions fft division:  task group distribution
                                  #TG    x Z-proc =       8     32
     Subspace diagonalization in iterative solution of the eigenvalue problem:
     one sub-group per band group will be used
     custom distributed-memory algorithm (size of sub-group:  3*  3 procs)


     Parallelization info
     --------------------
     sticks:   dense  smooth     PW     G-vecs:    dense   smooth      PW
     Min         110      74     18                12650     6892     854
     Max         112      76     20                12682     6908     872
     Sum       28655   19095   4781              3244711  1765913  220795

     Using Pencil Decomposition


     Title: 
     UiO-66-NH2-dehydrox GeomOpt                                                


     bravais-lattice index     =            0
     lattice parameter (alat)  =      27.5206  a.u.
     unit-cell volume          =   15311.2986 (a.u.)^3
     number of atoms/cell      =          120
     number of atomic types    =            5
     number of electrons       =       504.00
     number of Kohn-Sham states=          252
     kinetic-energy cutoff     =      90.0000  Ry
     charge density cutoff     =     540.0000  Ry
     scf convergence threshold =      1.0E-08
     mixing beta               =       0.7000
     number of iterations used =            8  plain     mixing
     energy convergence thresh.=      3.6E-06
     force convergence thresh. =      1.0E-05
     press convergence thresh. =      5.0E-01
     Exchange-correlation= PBE
                           (   1   4   3   4   0   0   0)
     nstep                     =          750


     celldm(1)=  27.520592  celldm(2)=   0.000000  celldm(3)=   0.000000
     celldm(4)=   0.000000  celldm(5)=   0.000000  celldm(6)=   0.000000

     crystal axes: (cart. coord. in units of alat)
               a(1) = (   0.999128  -0.001499  -0.001074 )  
               a(2) = (   0.472592   0.880293  -0.001074 )  
               a(3) = (   0.472592   0.282194   0.833837 )  

     reciprocal axes: (cart. coord. in units 2 pi/alat)
               b(1) = (  0.999653 -0.537141 -0.384788 )  
               b(2) = (  0.001289  1.134823 -0.384787 )  
               b(3) = (  0.001289  0.000770  1.198284 )  


     PseudoPot. # 1 for H  read from file:
     /home/mehlhorn/pseudos/UiO-66_pbe-spn-kjpaw/H.pbe-kjpaw_psl.1.0.0.UPF
     MD5 check sum: d81a744832360e4a8af0b0b5b123bc2a
     Pseudo is Projector augmented-wave, Zval =  1.0
     Generated using &quot;atomic&quot; code by A. Dal Corso  v.6.3MaX
     Shape of augmentation charge: PSQ
     Using radial grid of  929 points,  2 beta functions with: 
                l(1) =   0
                l(2) =   0
     Q(r) pseudized with 0 coefficients 


     PseudoPot. # 2 for Zr read from file:
     /home/mehlhorn/pseudos/UiO-66_pbe-spn-kjpaw/Zr.pbe-spn-kjpaw_psl.1.0.0.UPF
     MD5 check sum: 02112c41713a0468aff2bb39ef194e36
     Pseudo is Projector augmented-wave + core cor, Zval = 12.0
     Generated using &quot;atomic&quot; code by A. Dal Corso  v.6.2.2
     Shape of augmentation charge: PSQ
     Using radial grid of 1225 points,  6 beta functions with: 
                l(1) =   0
                l(2) =   0
                l(3) =   1
                l(4) =   1
                l(5) =   2
                l(6) =   2
     Q(r) pseudized with 0 coefficients 


     PseudoPot. # 3 for C  read from file:
     /home/mehlhorn/pseudos/UiO-66_pbe-spn-kjpaw/C.pbe-n-kjpaw_psl.1.0.0.UPF
     MD5 check sum: 5f16ad9a65e90284d1d834d4ab3b0f7d
     Pseudo is Projector augmented-wave + core cor, Zval =  4.0
     Generated using &quot;atomic&quot; code by A. Dal Corso  v.6.3
     Shape of augmentation charge: PSQ
     Using radial grid of 1073 points,  4 beta functions with: 
                l(1) =   0
                l(2) =   0
                l(3) =   1
                l(4) =   1
     Q(r) pseudized with 0 coefficients 


     PseudoPot. # 4 for O  read from file:
     /home/mehlhorn/pseudos/UiO-66_pbe-spn-kjpaw/O.pbe-n-kjpaw_psl.1.0.0.UPF
     MD5 check sum: e99d9cef9b487d1ca56f5b95ecd0fd7a
     Pseudo is Projector augmented-wave + core cor, Zval =  6.0
     Generated using &quot;atomic&quot; code by A. Dal Corso  v.6.3
     Shape of augmentation charge: PSQ
     Using radial grid of 1095 points,  4 beta functions with: 
                l(1) =   0
                l(2) =   0
                l(3) =   1
                l(4) =   1
     Q(r) pseudized with 0 coefficients 


     PseudoPot. # 5 for N  read from file:
     /home/mehlhorn/pseudos/UiO-66_pbe-spn-kjpaw/N.pbe-n-kjpaw_psl.1.0.0.UPF
     MD5 check sum: 14c48229446f9f2d411169a3abcbc3fa
     Pseudo is Projector augmented-wave + core cor, Zval =  5.0
     Generated using &quot;atomic&quot; code by A. Dal Corso  v.6.3
     Shape of augmentation charge: PSQ
     Using radial grid of 1085 points,  4 beta functions with: 
                l(1) =   0
                l(2) =   0
                l(3) =   1
                l(4) =   1
     Q(r) pseudized with 0 coefficients 


     atomic species   valence    mass     pseudopotential
     H                 1.00     1.00750     H ( 1.00)
     Zr               12.00    91.22400     Zr( 1.00)
     C                 4.00    12.01060     C ( 1.00)
     O                 6.00    15.99900     O ( 1.00)
     N                 5.00    14.00650     N ( 1.00)

     No symmetry found



   Cartesian axes

     site n.     atom                  positions (alat units)
         1        Zr     tau(   1) = (   0.9897260   0.1394703   0.1027928  )
         2        Zr     tau(   2) = (   0.5946370   0.8038567   0.0989843  )
         3        Zr     tau(   3) = (   0.5922354   0.3563639   0.7292731  )
         4        Zr     tau(   4) = (   1.3588491   0.8092782   0.1041067  )
         5        Zr     tau(   5) = (   0.9605257   1.0260101   0.7327585  )
         6        Zr     tau(   6) = (   1.3569845   0.3599400   0.7357153  )
         7        O      tau(   7) = (   1.0817914   0.2555949   0.0706762  )
         8        O      tau(   8) = (   0.6444250   0.8816090   0.2192682  )
         9        O      tau(   9) = (   0.7381347   0.3343093   0.7641934  )
        10        O      tau(  10) = (   1.3045630   0.2843690   0.6139293  )
        11        O      tau(  11) = (   0.8691315   0.9073844   0.7621840  )
        12        O      tau(  12) = (   1.2110664   0.8293564   0.0717351  )
        13        O      tau(  13) = (   1.3016404   0.6832251   0.0358596  )
        14        O      tau(  14) = (   1.2188784   0.2983534   0.7665977  )
        15        O      tau(  15) = (   0.7342708   0.8621459   0.0677019  )
        16        O      tau(  16) = (   0.8408012   1.0255330   0.6353639  )
        17        O      tau(  17) = (   0.8818625   0.0540130   0.0408773  )
        18        O      tau(  18) = (   0.4676612   0.7497466   0.0379903  )
        19        O      tau(  19) = (   0.6489012   0.4844451   0.7945267  )
        20        O      tau(  20) = (   1.1072722   0.1405044   0.2030708  )
        21        O      tau(  21) = (   0.6533449   0.6700937   0.0663036  )
        22        O      tau(  22) = (   0.5549554   0.4431368   0.6131359  )
        23        O      tau(  23) = (   0.8908622   0.2535811   0.0678990  )
        24        O      tau(  24) = (   1.3956965   0.7201220   0.2186948  )
        25        O      tau(  25) = (   1.0482662   1.0205917   0.6114768  )
        26        O      tau(  26) = (   1.2959737   0.4924776   0.7696042  )
        27        O      tau(  27) = (   0.4658406   0.2802309   0.6976630  )
        28        O      tau(  28) = (   1.3085984   0.8849098   0.2273867  )
        29        O      tau(  29) = (   0.5509774   0.7150793   0.2182545  )
        30        O      tau(  30) = (   1.4852946   0.8850105   0.1350273  )
        31        O      tau(  31) = (   1.4836319   0.4134731   0.7971534  )
        32        O      tau(  32) = (   1.0677256   1.1118828   0.7945166  )
        33        O      tau(  33) = (   1.3997315   0.4508919   0.6202003  )
        34        O      tau(  34) = (   0.6457990   0.2779106   0.6068436  )
        35        O      tau(  35) = (   1.0608711   0.9148643   0.7647070  )
        36        O      tau(  36) = (   0.8998145   0.1455674   0.2223165  )
        37        N      tau(  37) = (   1.0710587   0.4367077   0.0960083  )
        38        N      tau(  38) = (   0.7117453   0.8331457   0.3826023  )
        39        N      tau(  39) = (   0.8924867   0.3276150   0.6657582  )
        40        N      tau(  40) = (   1.3029846   0.6477111   0.3585662  )
        41        N      tau(  41) = (   1.1882513   0.6097040   0.6798447  )
        42        N      tau(  42) = (   1.1003703   0.8872057   0.4979157  )
        43        C      tau(  43) = (   0.8036981   0.9010656   0.8198487  )
        44        C      tau(  44) = (   1.3198026   0.2018311   0.5893945  )
        45        C      tau(  45) = (   0.1557562   0.0831829   0.2491217  )
        46        C      tau(  46) = (   1.1744669   0.8663862   0.0014784  )
        47        C      tau(  47) = (   0.1909256   0.3588803   0.0061936  )
        48        C      tau(  48) = (   0.4065008   0.0051743  -0.0040233  )
        49        C      tau(  49) = (   0.3050928   0.0125441  -0.0013880  )
        50        C      tau(  50) = (   0.1471093   0.2672975   0.0123234  )
        51        C      tau(  51) = (   1.1515089   0.4372420   0.0473252  )
        52        C      tau(  52) = (   0.7094772   0.9257525   0.3987703  )
        53        C      tau(  53) = (   0.7931772   0.7319043   0.7842133  )
        54        C      tau(  54) = (   1.2768189   0.1704056   0.5015407  )
        55        C      tau(  55) = (   0.7556446   0.8105039   0.8263978  )
        56        C      tau(  56) = (   1.0719479   0.8727969  -0.0000116  )
        57        C      tau(  57) = (   0.1973689   0.1105340   0.3378073  )
        58        C      tau(  58) = (   1.1980611   0.2029518   0.3600080  )
        59        C      tau(  59) = (   1.1137163   0.8978650   0.8322063  )
        60        C      tau(  60) = (   1.3186990   0.9663817   0.2573538  )
        61        C      tau(  61) = (   1.4762462   0.4696936   0.5823887  )
        62        C      tau(  62) = (   0.7850303   0.3566448  -0.0024304  )
        63        C      tau(  63) = (   0.4738313   0.6944503   0.2540613  )
        64        C      tau(  64) = (   0.8361091   0.2687821   0.0013392  )
        65        C      tau(  65) = (   1.2371973   0.2343874   0.4406913  )
        66        C      tau(  66) = (   1.0276763   0.2971771   0.7535382  )
        67        C      tau(  67) = (   0.9258353   0.8620601   0.0763387  )
        68        C      tau(  68) = (   0.7469398   0.6492229   0.7916671  )
        69        C      tau(  69) = (   0.7490734   0.9591932   0.4807181  )
        70        C      tau(  70) = (   1.0205553   0.8554806   0.0801453  )
        71        C      tau(  71) = (   1.1997296   0.5209449   0.0389475  )
        72        C      tau(  72) = (   0.9311163   0.3042253   0.7482400  )
        73        C      tau(  73) = (   0.7446661   0.2288630   0.4504629  )
        74        C      tau(  74) = (   1.3926848   0.5614108   0.4652751  )
        75        C      tau(  75) = (   1.2074215   0.9314189   0.3818730  )
        76        C      tau(  76) = (   1.3872145   0.6157448   0.3851909  )
        77        C      tau(  77) = (   1.1534618   0.9542782   0.4590831  )
        78        C      tau(  78) = (   1.2643123   0.9950843   0.3396350  )
        79        C      tau(  79) = (   1.2000622   0.6636478   0.7558448  )
        80        C      tau(  80) = (   1.1548242   0.7493146   0.7590415  )
        81        C      tau(  81) = (   0.5546936   0.6024999   0.3730041  )
        82        C      tau(  82) = (   0.7935157   0.4183356   0.0717703  )
        83        C      tau(  83) = (   0.4713466   0.6377679   0.3384654  )
        84        C      tau(  84) = (   0.7484551   0.5019739   0.0738210  )
        85        C      tau(  85) = (   0.7969239   0.2052785   0.3746804  )
        86        C      tau(  86) = (   0.5587183   0.5491464   0.4515361  )
        87        C      tau(  87) = (   1.4757173   0.5278162   0.4976925  )
        88        C      tau(  88) = (   0.6863319   0.1656180   0.4949677  )
        89        C      tau(  89) = (   1.1646335   0.8086526   0.8329108  )
        90        C      tau(  90) = (   0.6332102   0.1970621   0.5757915  )
        91        H      tau(  91) = (   0.8580678   0.7371430   0.7475557  )
        92        H      tau(  92) = (   1.2389051   0.3071775   0.4574449  )
        93        H      tau(  93) = (   1.1717628   0.5828447   0.0705429  )
        94        H      tau(  94) = (   0.7747330   0.5870729   0.7606190  )
        95        H      tau(  95) = (   1.0559462   0.8383521   0.1436754  )
        96        H      tau(  96) = (   1.1677618   0.2508478   0.3111507  )
        97        H      tau(  97) = (   1.0689046   0.3097250   0.6922618  )
        98        H      tau(  98) = (   0.8843044   0.8500194   0.1374068  )
        99        H      tau(  99) = (   0.7796759   0.9109369   0.5291623  )
       100        H      tau( 100) = (   0.8411093   0.2550126   0.3406908  )
       101        H      tau( 101) = (   0.6234599   0.5218890   0.4769660  )
       102        H      tau( 102) = (   0.7551676   0.5485480   0.1318461  )
       103        H      tau( 103) = (   0.8366963   0.3971404   0.1290795  )
       104        H      tau( 104) = (   0.6169419   0.6180104   0.3344983  )
       105        H      tau( 105) = (   1.1112266   0.7699304   0.7017548  )
       106        H      tau( 106) = (   0.7464886   0.2985896   0.4775369  )
       107        H      tau( 107) = (   1.2048910   0.8616839   0.3547045  )
       108        H      tau( 108) = (   1.0333383   0.3780708   0.0964530  )
       109        H      tau( 109) = (   1.0387660   0.4973806   0.1063910  )
       110        H      tau( 110) = (   1.3300933   0.5456116   0.5032250  )
       111        H      tau( 111) = (   1.2985281   0.6778950   0.2958653  )
       112        H      tau( 112) = (   1.0545415   0.9068357   0.5466673  )
       113        H      tau( 113) = (   1.2465922   0.6183819   0.3865697  )
       114        H      tau( 114) = (   0.7222667   0.7907954   0.4367091  )
       115        H      tau( 115) = (   1.2127103   0.5444682   0.6827468  )
       116        H      tau( 116) = (   0.9305828   0.3190399   0.6082523  )
       117        H      tau( 117) = (   0.6776165   0.8086871   0.3269396  )
       118        H      tau( 118) = (   0.8229737   0.3263010   0.6605078  )
       119        H      tau( 119) = (   1.1356834   0.6247221   0.6370018  )
       120        H      tau( 120) = (   1.0886575   0.8294595   0.4611368  )

     number of k points=     1
                       cart. coord. in units 2pi/alat
        k(    1) = (   0.0000000   0.0000000   0.0000000), wk =   2.0000000

     Dense  grid:  1622356 G-vectors     FFT dimensions: ( 216, 216, 216)

     Smooth grid:   882957 G-vectors     FFT dimensions: ( 180, 180, 180)

     Estimated max dynamical RAM per process >      64.39 MB

     Estimated total dynamical RAM >      16.10 GB

     Check: negative core charge=   -0.000002

     Initial potential from superposition of free atoms

     starting charge     503.9847, renormalised to     504.0000

     negative rho (up, down):  1.051E-06 0.000E+00
     Starting wfcs are  444 randomized atomic wfcs
     Checking if some PAW data can be deallocated... 

     total cpu time spent up to now is        8.5 secs

     Self-consistent Calculation

     iteration #  1     ecut=    90.00 Ry     beta= 0.70
     Davidson diagonalization with overlap
     ethr =  1.00E-02,  avg # of iterations =  2.0

     negative rho (up, down):  1.672E-08 0.000E+00

     total cpu time spent up to now is       14.6 secs

     total energy              =   -4177.03076696 Ry
     estimated scf accuracy    <      19.01573299 Ry

     iteration #  2     ecut=    90.00 Ry     beta= 0.70
     Davidson diagonalization with overlap
     ethr =  3.77E-03,  avg # of iterations = 10.0

     negative rho (up, down):  7.297E-08 0.000E+00

     total cpu time spent up to now is       24.1 secs

     total energy              =   -4180.34294224 Ry
     estimated scf accuracy    <      21.64767992 Ry

     iteration #  3     ecut=    90.00 Ry     beta= 0.70
     Davidson diagonalization with overlap
     ethr =  3.77E-03,  avg # of iterations =  8.0

     negative rho (up, down):  4.704E-07 0.000E+00

     total cpu time spent up to now is       31.1 secs

     total energy              =   -4184.72333831 Ry
     estimated scf accuracy    <       4.00056313 Ry

     iteration #  4     ecut=    90.00 Ry     beta= 0.70
     Davidson diagonalization with overlap
     ethr =  7.94E-04,  avg # of iterations =  5.0

     negative rho (up, down):  1.883E-05 0.000E+00

     total cpu time spent up to now is       37.5 secs

     total energy              =   -4184.82918541 Ry
     estimated scf accuracy    <       0.77327247 Ry

     iteration #  5     ecut=    90.00 Ry     beta= 0.70
     Davidson diagonalization with overlap
     ethr =  1.53E-04,  avg # of iterations = 10.0

     negative rho (up, down):  2.210E-05 0.000E+00

     total cpu time spent up to now is       49.4 secs

     total energy              =   -4185.76487047 Ry
     estimated scf accuracy    <       2.07632700 Ry

     iteration #  6     ecut=    90.00 Ry     beta= 0.70
     Davidson diagonalization with overlap
     ethr =  1.53E-04,  avg # of iterations =  5.0

     negative rho (up, down):  3.218E-05 0.000E+00

     total cpu time spent up to now is       54.2 secs

     total energy              =   -4185.17214978 Ry
     estimated scf accuracy    <       1.23028814 Ry

     iteration #  7     ecut=    90.00 Ry     beta= 0.70
     Davidson diagonalization with overlap
     ethr =  1.53E-04,  avg # of iterations = 10.0

     negative rho (up, down):  3.648E-05 0.000E+00

     total cpu time spent up to now is       63.9 secs

     total energy              =   -4185.74037447 Ry
     estimated scf accuracy    <       0.43236489 Ry

     iteration #  8     ecut=    90.00 Ry     beta= 0.70
     Davidson diagonalization with overlap
     ethr =  8.58E-05,  avg # of iterations =  2.0

     negative rho (up, down):  4.875E-05 0.000E+00

     total cpu time spent up to now is       68.8 secs

     total energy              =   -4185.64592272 Ry
     estimated scf accuracy    <       0.29741589 Ry

     iteration #  9     ecut=    90.00 Ry     beta= 0.70
     Davidson diagonalization with overlap
     ethr =  5.90E-05,  avg # of iterations =  9.0

     negative rho (up, down):  5.021E-05 0.000E+00

     total cpu time spent up to now is       76.0 secs

     total energy              =   -4185.72103893 Ry
     estimated scf accuracy    <       0.02123622 Ry

     iteration # 10     ecut=    90.00 Ry     beta= 0.70
     Davidson diagonalization with overlap
     ethr =  4.21E-06,  avg # of iterations =  5.0

     negative rho (up, down):  5.098E-05 0.000E+00

     total cpu time spent up to now is       83.0 secs

     total energy              =   -4185.72510102 Ry
     estimated scf accuracy    <       0.00938202 Ry

     iteration # 11     ecut=    90.00 Ry     beta= 0.70
     Davidson diagonalization with overlap
     ethr =  1.86E-06,  avg # of iterations =  2.0

     negative rho (up, down):  5.146E-05 0.000E+00

     total cpu time spent up to now is       87.8 secs

     total energy              =   -4185.72385291 Ry
     estimated scf accuracy    <       0.00428312 Ry

     iteration # 12     ecut=    90.00 Ry     beta= 0.70
     Davidson diagonalization with overlap
     ethr =  8.50E-07,  avg # of iterations =  8.0

     negative rho (up, down):  5.350E-05 0.000E+00

     total cpu time spent up to now is       96.9 secs

     total energy              =   -4185.72618347 Ry
     estimated scf accuracy    <       0.00265652 Ry

     iteration # 13     ecut=    90.00 Ry     beta= 0.70
     Davidson diagonalization with overlap
     ethr =  5.27E-07,  avg # of iterations =  1.0

     negative rho (up, down):  5.411E-05 0.000E+00

     total cpu time spent up to now is      101.2 secs

     total energy              =   -4185.72567120 Ry
     estimated scf accuracy    <       0.00149808 Ry

     iteration # 14     ecut=    90.00 Ry     beta= 0.70
     Davidson diagonalization with overlap
     ethr =  2.97E-07,  avg # of iterations =  6.0

     negative rho (up, down):  5.402E-05 0.000E+00

     total cpu time spent up to now is      108.0 secs

     total energy              =   -4185.72623053 Ry
     estimated scf accuracy    <       0.00026602 Ry

     iteration # 15     ecut=    90.00 Ry     beta= 0.70
     Davidson diagonalization with overlap
     ethr =  5.28E-08,  avg # of iterations =  2.0

     negative rho (up, down):  5.399E-05 0.000E+00

     total cpu time spent up to now is      113.0 secs

     total energy              =   -4185.72619510 Ry
     estimated scf accuracy    <       0.00021479 Ry

     iteration # 16     ecut=    90.00 Ry     beta= 0.70
     Davidson diagonalization with overlap
     ethr =  4.26E-08,  avg # of iterations =  2.0

     negative rho (up, down):  5.396E-05 0.000E+00

     total cpu time spent up to now is      117.9 secs

     total energy              =   -4185.72616728 Ry
     estimated scf accuracy    <       0.00009605 Ry

     iteration # 17     ecut=    90.00 Ry     beta= 0.70
     Davidson diagonalization with overlap
     ethr =  1.91E-08,  avg # of iterations = 11.0

     negative rho (up, down):  5.397E-05 0.000E+00

     total cpu time spent up to now is      127.2 secs

     total energy              =   -4185.72623127 Ry
     estimated scf accuracy    <       0.00007408 Ry

     iteration # 18     ecut=    90.00 Ry     beta= 0.70
     Davidson diagonalization with overlap
     ethr =  1.47E-08,  avg # of iterations =  2.0

     negative rho (up, down):  5.397E-05 0.000E+00

     total cpu time spent up to now is      131.7 secs

     total energy              =   -4185.72620881 Ry
     estimated scf accuracy    <       0.00004974 Ry

     iteration # 19     ecut=    90.00 Ry     beta= 0.70
     Davidson diagonalization with overlap
     ethr =  9.87E-09,  avg # of iterations =  6.0

     negative rho (up, down):  5.396E-05 0.000E+00

     total cpu time spent up to now is      139.0 secs

     total energy              =   -4185.72622545 Ry
     estimated scf accuracy    <       0.00000726 Ry

     iteration # 20     ecut=    90.00 Ry     beta= 0.70
     Davidson diagonalization with overlap
     ethr =  1.44E-09,  avg # of iterations =  4.0

     negative rho (up, down):  5.399E-05 0.000E+00

     total cpu time spent up to now is      144.2 secs

     total energy              =   -4185.72622390 Ry
     estimated scf accuracy    <       0.00000316 Ry

     iteration # 21     ecut=    90.00 Ry     beta= 0.70
     Davidson diagonalization with overlap
     ethr =  6.27E-10,  avg # of iterations = 18.0

     negative rho (up, down):  5.398E-05 0.000E+00

     total cpu time spent up to now is      157.6 secs

     total energy              =   -4185.72622604 Ry
     estimated scf accuracy    <       0.00001905 Ry

     iteration # 22     ecut=    90.00 Ry     beta= 0.70
     Davidson diagonalization with overlap
     ethr =  6.27E-10,  avg # of iterations =  6.0

     negative rho (up, down):  5.397E-05 0.000E+00

     total cpu time spent up to now is      164.6 secs

     total energy              =   -4185.72622560 Ry
     estimated scf accuracy    <       0.00000365 Ry

     iteration # 23     ecut=    90.00 Ry     beta= 0.70
     Davidson diagonalization with overlap
     ethr =  6.27E-10,  avg # of iterations = 10.0

     negative rho (up, down):  5.397E-05 0.000E+00

     total cpu time spent up to now is      171.8 secs

     total energy              =   -4185.72622663 Ry
     estimated scf accuracy    <       0.00000047 Ry

     iteration # 24     ecut=    90.00 Ry     beta= 0.70
     Davidson diagonalization with overlap
     ethr =  9.42E-11,  avg # of iterations =  6.0

     negative rho (up, down):  5.397E-05 0.000E+00

     total cpu time spent up to now is      177.5 secs

     total energy              =   -4185.72622664 Ry
     estimated scf accuracy    <       0.00000032 Ry

     iteration # 25     ecut=    90.00 Ry     beta= 0.70
     Davidson diagonalization with overlap
     ethr =  6.38E-11,  avg # of iterations =  7.0

     negative rho (up, down):  5.397E-05 0.000E+00

     total cpu time spent up to now is      182.8 secs

     total energy              =   -4185.72622659 Ry
     estimated scf accuracy    <       0.00000017 Ry

     iteration # 26     ecut=    90.00 Ry     beta= 0.70
     Davidson diagonalization with overlap
     ethr =  3.47E-11,  avg # of iterations = 11.0

     negative rho (up, down):  5.397E-05 0.000E+00

     total cpu time spent up to now is      192.0 secs

     total energy              =   -4185.72622670 Ry
     estimated scf accuracy    <       0.00000006 Ry

     iteration # 27     ecut=    90.00 Ry     beta= 0.70
     Davidson diagonalization with overlap
     ethr =  1.13E-11,  avg # of iterations =  2.0

     negative rho (up, down):  5.397E-05 0.000E+00

     total cpu time spent up to now is      196.7 secs

     total energy              =   -4185.72622668 Ry
     estimated scf accuracy    <       0.00000004 Ry

     iteration # 28     ecut=    90.00 Ry     beta= 0.70
     Davidson diagonalization with overlap
     ethr =  8.19E-12,  avg # of iterations = 11.0

     negative rho (up, down):  5.397E-05 0.000E+00

     total cpu time spent up to now is      204.3 secs

     End of self-consistent calculation

          k = 0.0000 0.0000 0.0000 (110398 PWs)   bands (ev):

   -49.2737 -49.2577 -49.2576 -49.2426 -49.2394 -49.2393 -27.7786 -27.6735
   -27.6734 -27.5715 -27.5715 -27.5633 -27.4301 -27.3864 -27.3864 -27.3796
   -27.3795 -27.3523 -27.2801 -27.2801 -27.2437 -27.2284 -27.2283 -27.2283
   -22.4691 -22.4300 -22.4299 -22.4049 -22.4049 -22.3873 -22.2152 -22.1707
   -22.1475 -22.1475 -22.1112 -22.1112 -20.1827 -20.1660 -20.1660 -20.1301
   -20.1301 -20.0950 -19.9597 -19.9596 -19.9085 -19.9085 -19.8594 -19.8237
   -18.7011 -18.6975 -18.6975 -18.4488 -18.4487 -18.4486 -17.6633 -17.4369
   -17.4369 -17.2437 -17.2437 -17.2100 -16.5642 -16.5642 -16.5636 -16.3411
   -16.3409 -16.3409 -14.6135 -14.6135 -14.6054 -14.3891 -14.3689 -14.3689
   -13.6545 -13.6545 -13.6501 -13.4353 -13.4347 -13.4347 -11.9861 -11.9600
   -11.9600 -11.7615 -11.7095 -11.7095 -10.6533 -10.6495 -10.6495 -10.4229
   -10.4229 -10.4128  -9.9265  -9.9265  -9.8013  -9.7170  -9.6103  -9.5478
    -9.5478  -9.5180  -9.5180  -9.3905  -9.3136  -9.3136  -8.6537  -8.6036
    -8.6036  -8.3961  -8.3489  -8.3489  -8.2451  -8.0901  -8.0901  -8.0051
    -7.9658  -7.9658  -7.8154  -7.7500  -7.7499  -7.6328  -7.6328  -7.5955
    -7.5108  -7.5108  -7.4347  -7.4347  -7.4187  -7.3260  -7.3161  -7.3160
    -7.2303  -7.1429  -7.1428  -6.9509  -6.9509  -6.9373  -6.9286  -6.7972
    -6.7556  -6.7556  -6.7183  -6.5355  -6.5355  -6.4396  -6.4396  -6.4159
    -6.3452  -6.2140  -6.2140  -6.1518  -6.0128  -6.0128  -5.9984  -5.9572
    -5.9572  -5.8841  -5.8591  -5.8591  -5.7518  -5.7517  -5.7408  -5.6562
    -5.6543  -5.6543  -5.4164  -5.3459  -5.3459  -5.1660  -5.0039  -4.9904
    -4.9904  -4.9329  -4.9329  -4.8009  -4.7630  -4.7447  -4.7447  -4.5882
    -4.5881  -4.5604  -4.5384  -4.5384  -4.4630  -4.0703  -4.0703  -4.0509
    -3.9299  -3.9165  -3.9165  -3.8644  -3.8644  -3.8151  -3.8151  -3.7674
    -3.6873  -3.6873  -3.5173  -3.3268  -3.3268  -3.3190  -3.2597  -3.2429
    -3.2429  -3.1828  -3.1426  -3.0804  -3.0804  -3.0296  -2.9948  -2.9948
    -2.9066  -2.9066  -2.8988  -2.7832  -2.7832  -2.7741  -2.7729  -2.6613
    -2.6613  -2.6124  -2.6124  -2.5543  -2.5543  -2.4898  -2.3992  -2.3559
    -2.3559  -2.3464  -2.2555  -2.2554  -2.2287  -2.1908  -2.1908  -2.1652
    -2.1342  -2.1342  -2.0543  -2.0506  -2.0506  -1.9707  -1.9707  -1.9417
    -1.7658  -1.7337  -1.7336  -1.3183  -1.3183  -1.1815  -0.6750  -0.6750
    -0.6610  -0.4564  -0.4389  -0.4389

     highest occupied level (ev):    -0.4389

!    total energy              =   -4185.72622669 Ry
     total all-electron energy =    -52053.936096 Ry
     estimated scf accuracy    <          5.5E-09 Ry

     The total energy is the sum of the following terms:
     one-electron contribution =   -6004.98242852 Ry
     hartree contribution      =    3151.25792082 Ry
     xc contribution           =    -609.66337377 Ry
     ewald contribution        =    1169.16167579 Ry
     one-center paw contrib.   =   -1891.50002101 Ry

     convergence has been achieved in  28 iterations

     negative rho (up, down):  5.397E-05 0.000E+00

     Forces acting on atoms (cartesian axes, Ry/au):

     atom    1 type  2   force =     0.00001325    0.00001904    0.00000886
     atom    2 type  2   force =     0.00002585   -0.00000763   -0.00000197
     atom    3 type  2   force =     0.00000302    0.00000441    0.00000154
     atom    4 type  2   force =    -0.00000411   -0.00001415    0.00000665
     atom    5 type  2   force =     0.00000415    0.00000260   -0.00000524
     atom    6 type  2   force =     0.00000558    0.00000984   -0.00000810
     atom    7 type  4   force =    -0.00000272   -0.00000183    0.00000279
     atom    8 type  4   force =     0.00000110    0.00000180   -0.00000014
     atom    9 type  4   force =    -0.00000249    0.00000243   -0.00000853
     atom   10 type  4   force =     0.00000759    0.00000552   -0.00000122
     atom   11 type  4   force =     0.00000967    0.00000246    0.00000166
     atom   12 type  4   force =     0.00000080    0.00000610    0.00000113
     atom   13 type  4   force =    -0.00000218   -0.00000489    0.00000666
     atom   14 type  4   force =    -0.00000138    0.00000836   -0.00001006
     atom   15 type  4   force =    -0.00000125   -0.00000013   -0.00000896
     atom   16 type  4   force =     0.00000708   -0.00000813   -0.00000217
     atom   17 type  4   force =     0.00000766    0.00001014    0.00000774
     atom   18 type  4   force =     0.00001299   -0.00000044    0.00000172
     atom   19 type  4   force =    -0.00000081   -0.00000318   -0.00000370
     atom   20 type  4   force =    -0.00000702    0.00000121   -0.00000148
     atom   21 type  4   force =    -0.00000101    0.00000504   -0.00000241
     atom   22 type  4   force =    -0.00000044   -0.00000063    0.00000208
     atom   23 type  4   force =     0.00001331   -0.00000238    0.00000822
     atom   24 type  4   force =    -0.00000615    0.00000205    0.00000294
     atom   25 type  4   force =     0.00000373   -0.00000314    0.00000210
     atom   26 type  4   force =     0.00000094    0.00000580   -0.00000648
     atom   27 type  4   force =     0.00001026    0.00000313   -0.00000201
     atom   28 type  4   force =    -0.00000367   -0.00000286   -0.00001167
     atom   29 type  4   force =     0.00001191    0.00000472   -0.00000741
     atom   30 type  4   force =    -0.00000176   -0.00000820   -0.00000247
     atom   31 type  4   force =    -0.00001359    0.00000497    0.00000418
     atom   32 type  4   force =    -0.00000578   -0.00000317   -0.00000975
     atom   33 type  4   force =    -0.00000289   -0.00001298    0.00000463
     atom   34 type  4   force =    -0.00000126    0.00000122    0.00000492
     atom   35 type  4   force =    -0.00000411    0.00000605    0.00001503
     atom   36 type  4   force =     0.00000662    0.00000285   -0.00000336
     atom   37 type  5   force =    -0.00000232   -0.00000094   -0.00000365
     atom   38 type  5   force =    -0.00000631    0.00000419   -0.00000526
     atom   39 type  5   force =    -0.00001085   -0.00000297    0.00000946
     atom   40 type  5   force =    -0.00000290   -0.00001129    0.00000018
     atom   41 type  5   force =    -0.00000130   -0.00000263    0.00001286
     atom   42 type  5   force =    -0.00000681   -0.00000212   -0.00000963
     atom   43 type  3   force =    -0.00001247    0.00000507   -0.00000521
     atom   44 type  3   force =    -0.00000534   -0.00001429    0.00001043
     atom   45 type  3   force =     0.00000007   -0.00002192   -0.00001261
     atom   46 type  3   force =    -0.00000210   -0.00001379   -0.00000274
     atom   47 type  3   force =     0.00001134   -0.00000274   -0.00000903
     atom   48 type  3   force =     0.00000303   -0.00000264    0.00000572
     atom   49 type  3   force =    -0.00001545    0.00000191   -0.00000423
     atom   50 type  3   force =    -0.00002338   -0.00000132    0.00002097
     atom   51 type  3   force =    -0.00000972    0.00000115    0.00000486
     atom   52 type  3   force =    -0.00000397   -0.00000757   -0.00000541
     atom   53 type  3   force =    -0.00001230   -0.00000565    0.00001611
     atom   54 type  3   force =     0.00000495   -0.00000461   -0.00000939
     atom   55 type  3   force =    -0.00000905    0.00000029    0.00001618
     atom   56 type  3   force =    -0.00000457    0.00000869    0.00000129
     atom   57 type  3   force =    -0.00000038    0.00000773    0.00000402
     atom   58 type  3   force =     0.00000902   -0.00000949    0.00000233
     atom   59 type  3   force =     0.00000836    0.00000439   -0.00001904
     atom   60 type  3   force =     0.00000787   -0.00000903    0.00001498
     atom   61 type  3   force =    -0.00001343    0.00001886    0.00000467
     atom   62 type  3   force =    -0.00000650    0.00001308   -0.00001013
     atom   63 type  3   force =    -0.00000528    0.00001938   -0.00000336
     atom   64 type  3   force =     0.00001222   -0.00001023   -0.00001920
     atom   65 type  3   force =     0.00001081   -0.00002274   -0.00000299
     atom   66 type  3   force =    -0.00000725   -0.00000690    0.00000827
     atom   67 type  3   force =     0.00000851    0.00000793   -0.00000975
     atom   68 type  3   force =    -0.00000922    0.00001576    0.00001638
     atom   69 type  3   force =    -0.00000779    0.00000933   -0.00000158
     atom   70 type  3   force =    -0.00000923    0.00001499   -0.00002091
     atom   71 type  3   force =     0.00001040   -0.00001284   -0.00001640
     atom   72 type  3   force =    -0.00000491    0.00000002   -0.00000624
     atom   73 type  3   force =    -0.00000157   -0.00001045    0.00000097
     atom   74 type  3   force =     0.00001787    0.00000210   -0.00001224
     atom   75 type  3   force =    -0.00000227    0.00002424    0.00000855
     atom   76 type  3   force =    -0.00000622   -0.00000066   -0.00000192
     atom   77 type  3   force =    -0.00000304   -0.00000395   -0.00000228
     atom   78 type  3   force =    -0.00001228   -0.00000283   -0.00000068
     atom   79 type  3   force =    -0.00000063   -0.00001320   -0.00000722
     atom   80 type  3   force =     0.00000361    0.00000382    0.00001645
     atom   81 type  3   force =    -0.00000643    0.00000387   -0.00000017
     atom   82 type  3   force =     0.00000223   -0.00000731   -0.00000778
     atom   83 type  3   force =    -0.00000968   -0.00000044    0.00001243
     atom   84 type  3   force =     0.00000060    0.00000252   -0.00000763
     atom   85 type  3   force =    -0.00000146    0.00000183    0.00001084
     atom   86 type  3   force =    -0.00000261    0.00000796   -0.00000190
     atom   87 type  3   force =    -0.00000522   -0.00000353   -0.00000953
     atom   88 type  3   force =     0.00000434   -0.00001274   -0.00000230
     atom   89 type  3   force =    -0.00000187   -0.00001291    0.00000416
     atom   90 type  3   force =    -0.00000295   -0.00001520    0.00001900
     atom   91 type  1   force =     0.00000144   -0.00000576   -0.00000365
     atom   92 type  1   force =    -0.00000451    0.00000515   -0.00000475
     atom   93 type  1   force =    -0.00000575    0.00000714    0.00000450
     atom   94 type  1   force =     0.00000668   -0.00000360    0.00000267
     atom   95 type  1   force =    -0.00000337   -0.00000274    0.00000774
     atom   96 type  1   force =     0.00000526    0.00000270   -0.00000189
     atom   97 type  1   force =     0.00000133    0.00000092   -0.00000643
     atom   98 type  1   force =     0.00000043    0.00000534    0.00000450
     atom   99 type  1   force =     0.00000138   -0.00000590    0.00000338
     atom  100 type  1   force =     0.00000374   -0.00000071   -0.00000032
     atom  101 type  1   force =     0.00000115    0.00000109    0.00000357
     atom  102 type  1   force =     0.00000162    0.00000374    0.00000001
     atom  103 type  1   force =     0.00000390    0.00000155   -0.00000004
     atom  104 type  1   force =     0.00000242    0.00000363    0.00000138
     atom  105 type  1   force =    -0.00000372   -0.00000088    0.00000380
     atom  106 type  1   force =     0.00000321    0.00000189    0.00000323
     atom  107 type  1   force =    -0.00000252   -0.00000124   -0.00000569
     atom  108 type  1   force =     0.00000584    0.00000451    0.00000041
     atom  109 type  1   force =     0.00000472   -0.00000806   -0.00000209
     atom  110 type  1   force =    -0.00000181   -0.00000557    0.00000025
     atom  111 type  1   force =     0.00000590   -0.00000405    0.00000529
     atom  112 type  1   force =     0.00000620    0.00000371   -0.00000580
     atom  113 type  1   force =     0.00000863   -0.00000224   -0.00000644
     atom  114 type  1   force =    -0.00000127    0.00000331   -0.00000289
     atom  115 type  1   force =    -0.00000316    0.00001290    0.00000502
     atom  116 type  1   force =    -0.00000032   -0.00000056    0.00000117
     atom  117 type  1   force =     0.00000632    0.00000530    0.00000794
     atom  118 type  1   force =     0.00001346    0.00000092    0.00000217
     atom  119 type  1   force =    -0.00000450   -0.00000128    0.00000556
     atom  120 type  1   force =    -0.00000175    0.00001254    0.00000092

     Total force =     0.000148     Total SCF correction =     0.000170
     SCF correction compared to forces is large: reduce conv_thr to get better values


     Computing stress (Cartesian axis) and pressure


     negative rho (up, down):  5.397E-05 0.000E+00
          total   stress  (Ry/bohr**3)                   (kbar)     P=        0.24
   0.00000159  -0.00000002  -0.00000002            0.23       -0.00       -0.00
  -0.00000002   0.00000161  -0.00000001           -0.00        0.24       -0.00
  -0.00000002  -0.00000001   0.00000161           -0.00       -0.00        0.24


     BFGS Geometry Optimization
     Energy error            =      0.0E+00 Ry
     Gradient error          =      2.6E-05 Ry/Bohr
     Cell gradient error     =      2.4E-01 kbar

     number of scf cycles    =   1
     number of bfgs steps    =   0

     enthalpy           new  =   -4185.7262266912 Ry

     new trust radius        =       0.0009992287 bohr
     new conv_thr            =       0.0000000100 Ry

     new unit-cell volume =  15313.14089 a.u.^3 (  2269.17336 Ang^3 )
     density =      1.25726 g/cm^3

CELL_PARAMETERS (alat= 27.52059178)
   0.999167806  -0.001499958  -0.001074386
   0.472610587   0.880328521  -0.001074571
   0.472610726   0.282205232   0.833870574

ATOMIC_POSITIONS (crystal)
Zr               0.8749138886        0.1199976477        0.1245586370
Zr               0.1245594608        0.8749138059        0.1199967625
Zr               0.1199969511        0.1245586329        0.8749139519
Zr               0.8836222262        0.8800801812        0.1271245409
Zr               0.1271240834        0.8836224809        0.8800806243
Zr               0.8800810521        0.1271244366        0.8836217986
O                0.9169300722        0.2642545156        0.0862816990
O                0.0862814808        0.9169296836        0.2642550551
O                0.2642551144        0.0862819208        0.9169290360
O                0.9151318032        0.0881586759        0.7375621365
O                0.0881579137        0.7375628424        0.9151317537
O                0.7375619893        0.9151319505        0.0881588490
O                0.9204021965        0.7632194035        0.0451743847
O                0.7632201934        0.0451732582        0.9204021639
O                0.2448713731        0.9532792915        0.0827361335
O                0.0451738936        0.9204024553        0.7632196686
O                0.8368147423        0.0467035344        0.0501613644
O                0.0501615644        0.8368146805        0.0467033816
O                0.0827367121        0.2448722163        0.9532777401
O                0.9532779053        0.0827363922        0.2448720090
O                0.2676704989        0.7357678302        0.0808086429
O                0.0808087959        0.2676704610        0.7357674103
O                0.7282179649        0.2627915260        0.0827063446
O                0.9242538381        0.7348598520        0.2644122849
O                0.2644122780        0.9242540568        0.7348599803
O                0.7348599492        0.2644123074        0.9242537517
O                0.0467036622        0.0501614186        0.8368143960
O                0.7453274983        0.9184080032        0.2748416181
O                0.0827066243        0.7282177748        0.2627913892
O                0.9574470837        0.9542885776        0.1643971330
O                0.9542882876        0.1643973946        0.9574470842
O                0.1643971451        0.9574471236        0.9542884020
O                0.9184078670        0.2748415152        0.7453277705
O                0.2627915760        0.0827062885        0.7282175661
O                0.2748415703        0.7453275313        0.9184086268
O                0.7357676336        0.0808090857        0.2676701780
N                0.7991705853        0.4600242761        0.1167620384
N                0.1167607888        0.7991705497        0.4600248893
N                0.4600255465        0.1167601908        0.7991703687
N                0.8166485079        0.5987454081        0.4318425522
N                0.5987459556        0.4318423914        0.8166486655
N                0.4318420802        0.8166488415        0.5987454614
C                0.0039519043        0.7081192884        0.9841409009
C                0.9841410331        0.0039520292        0.7081191012
C                0.0151627925       -0.0012608988        0.2987827981
C                0.7081192208        0.9841401742        0.0039526022
C               -0.0042925343        0.4051286385        0.0079438022
C                0.4051285642        0.0079439649       -0.0042927543
C                0.2987825315        0.0151629677       -0.0012604420
C               -0.0012611284        0.2987828963        0.0151632569
C                0.8980381123        0.4794669930        0.0585303360
C                0.0585296028        0.8980382462        0.4794671664
C                0.0980100824        0.5298488726        0.9412967107
C                0.9918576676        0.0020400112        0.6027648428
C                0.0020393763        0.6027652262        0.9918579106
C                0.6027651557        0.9918571583        0.0020400962
C                0.0079437207       -0.0042927222        0.4051287001
C                0.9501055107        0.0933322425        0.4330925177
C                0.3108275943        0.7001320463        0.9993454243
C                0.7001318951        0.9993456520        0.3108276388
C                0.9993452822        0.3108275804        0.7001318244
C                0.5941241865        0.4066768866       -0.0016261417
C                0.0028890280        0.6909306022        0.3055828695
C                0.6909306428        0.3055828410        0.0028887766
C                0.9412971971        0.0980102088        0.5298484555
C                0.5777412068        0.0486160884        0.9045065871
C                0.4330923778        0.9501058667        0.0933322887
C                0.0933318019        0.4330932124        0.9501053248
C                0.0486167173        0.9045066712        0.5777408095
C                0.5298482754        0.9412971990        0.0980102556
C                0.9045067809        0.5777404799        0.0486172576
C                0.4794676201        0.0585292380        0.8980381606
C                0.4481435183        0.0873463082        0.5409186115
C                0.9116134941        0.4598659794        0.5597586701
C                0.5597585828        0.9116136435        0.4598662293
C                0.9077744953        0.5523335381        0.4638303347
C                0.4638301629        0.9077747463        0.5523334881
C                0.5986852722        1.0001876243        0.4093751549
C                0.5523339553        0.4638302059        0.9077742634
C                0.4598659531        0.5597589961        0.9116134357
C                0.0873460470        0.5409189908        0.4481437447
C                0.5409191730        0.4481435748        0.0873459340
C               -0.0016260735        0.5941241646        0.4066768429
C                0.4501593290        0.5422114892        0.0898096043
C                0.5422111309        0.0898100337        0.4501593253
C                0.0898097137        0.4501594185        0.5422113364
C                1.0001875800        0.4093750733        0.5986852304
C                0.4066764595       -0.0016257233        0.5941239666
C                0.4093752808        0.5986852136        1.0001876473
C                0.3055827326        0.0028889377        0.6909303671
H                0.1741703581        0.5499831073        0.8974574026
H                0.8974581754        0.1741708456        0.5499821697
H                0.8311420382        0.6357927912        0.0864899744
H                0.1664467546        0.3745460450        0.9128882763
H                0.5499819053        0.8974582413        0.1741710109
H                0.9128891285        0.1664468864        0.3745452761
H                0.6357939914        0.0864878589        0.8311422219
H                0.3745447711        0.9128897620        0.1664469663
H                0.0864888792        0.8311423303        0.6357932095
H                0.5727462446        0.1593851787        0.4095248976
H                0.1593849745        0.4095251505        0.5727463019
H                0.4095251258        0.5727461980        0.1593849608
H                0.5734174795        0.4020949675        0.1560582504
H                0.1560583718        0.5734174457        0.4020950413
H                0.4272530551        0.6051412593        0.8429267870
H                0.4020945634        0.1560588125        0.5734170136
H                0.6051413080        0.8429266803        0.4272531704
H                0.7927885855        0.3932621481        0.1172013727
H                0.7303044441        0.5248402727        0.1292086726
H                0.8429267004        0.4272528107        0.6051411267
H                0.8201072645        0.6571198210        0.3567267674
H                0.3567264173        0.8201074877        0.6571199969
H                0.7652545853        0.5546143472        0.4653030376
H                0.1292071421        0.7303043010        0.5248412606
H                0.6571202780        0.3567269182        0.8201072052
H                0.5248424768        0.1292059183        0.7303041427
H                0.1172001466        0.7927885069        0.3932629309
H                0.3932636701        0.1172000110        0.7927879919
H                0.5546147827        0.4653030889        0.7652542341
H                0.4653030031        0.7652545218        0.5546148216



     Writing config-only to output data dir ./pwscf.save/ :
     XML data file
     NEW-OLD atomic charge density approx. for the potential

     Check: negative core charge=   -0.000002

     negative rho (up, down):  5.422E-05 0.000E+00

     total cpu time spent up to now is      211.2 secs

     Self-consistent Calculation

     iteration #  1     ecut=    90.00 Ry     beta= 0.70
     Davidson diagonalization with overlap
     ethr =  1.00E-06,  avg # of iterations =  2.0

     Threshold (ethr) on eigenvalues was too large:
     Diagonalizing with lowered threshold

     Davidson diagonalization with overlap
     ethr =  5.93E-11,  avg # of iterations =  5.0

     negative rho (up, down):  5.413E-05 0.000E+00

     total cpu time spent up to now is      223.8 secs

     total energy              =   -4185.72622895 Ry
     estimated scf accuracy    <       0.00000020 Ry

     iteration #  2     ecut=    90.00 Ry     beta= 0.70
     Davidson diagonalization with overlap
     ethr =  4.00E-11,  avg # of iterations =  2.0

     negative rho (up, down):  5.412E-05 0.000E+00

     total cpu time spent up to now is      229.8 secs

     total energy              =   -4185.72622898 Ry
     estimated scf accuracy    <       0.00000002 Ry

     iteration #  3     ecut=    90.00 Ry     beta= 0.70
     Davidson diagonalization with overlap
     ethr =  4.51E-12,  avg # of iterations = 13.0

     negative rho (up, down):  5.412E-05 0.000E+00

     total cpu time spent up to now is      239.7 secs

     total energy              =   -4185.72622899 Ry
     estimated scf accuracy    <       0.00000002 Ry

     iteration #  4     ecut=    90.00 Ry     beta= 0.70
     Davidson diagonalization with overlap
     ethr =  3.79E-12,  avg # of iterations =  8.0

     negative rho (up, down):  5.411E-05 0.000E+00

     total cpu time spent up to now is      245.5 secs

     End of self-consistent calculation

          k = 0.0000 0.0000 0.0000 (110398 PWs)   bands (ev):

   -49.2750 -49.2590 -49.2589 -49.2439 -49.2407 -49.2407 -27.7796 -27.6744
   -27.6744 -27.5725 -27.5725 -27.5644 -27.4313 -27.3876 -27.3876 -27.3808
   -27.3807 -27.3534 -27.2813 -27.2813 -27.2448 -27.2297 -27.2295 -27.2295
   -22.4689 -22.4298 -22.4297 -22.4047 -22.4047 -22.3871 -22.2150 -22.1706
   -22.1473 -22.1473 -22.1111 -22.1111 -20.1828 -20.1661 -20.1661 -20.1302
   -20.1302 -20.0951 -19.9597 -19.9597 -19.9087 -19.9087 -19.8595 -19.8238
   -18.7011 -18.6975 -18.6975 -18.4488 -18.4487 -18.4486 -17.6639 -17.4375
   -17.4375 -17.2442 -17.2442 -17.2105 -16.5642 -16.5642 -16.5636 -16.3412
   -16.3410 -16.3409 -14.6136 -14.6136 -14.6055 -14.3892 -14.3691 -14.3691
   -13.6547 -13.6547 -13.6504 -13.4356 -13.4349 -13.4349 -11.9863 -11.9602
   -11.9602 -11.7617 -11.7097 -11.7097 -10.6535 -10.6497 -10.6497 -10.4231
   -10.4231 -10.4131  -9.9270  -9.9270  -9.8018  -9.7174  -9.6106  -9.5481
    -9.5481  -9.5185  -9.5185  -9.3907  -9.3139  -9.3138  -8.6539  -8.6038
    -8.6038  -8.3963  -8.3491  -8.3490  -8.2454  -8.0904  -8.0903  -8.0053
    -7.9661  -7.9661  -7.8157  -7.7502  -7.7502  -7.6331  -7.6331  -7.5958
    -7.5111  -7.5111  -7.4351  -7.4350  -7.4190  -7.3263  -7.3164  -7.3164
    -7.2306  -7.1432  -7.1432  -6.9512  -6.9512  -6.9376  -6.9289  -6.7974
    -6.7559  -6.7559  -6.7184  -6.5356  -6.5355  -6.4396  -6.4396  -6.4159
    -6.3453  -6.2141  -6.2141  -6.1519  -6.0132  -6.0132  -5.9988  -5.9573
    -5.9573  -5.8845  -5.8595  -5.8595  -5.7521  -5.7521  -5.7412  -5.6566
    -5.6547  -5.6546  -5.4167  -5.3463  -5.3463  -5.1664  -5.0041  -4.9908
    -4.9908  -4.9331  -4.9331  -4.8013  -4.7632  -4.7450  -4.7449  -4.5886
    -4.5886  -4.5607  -4.5388  -4.5388  -4.4633  -4.0708  -4.0708  -4.0514
    -3.9304  -3.9170  -3.9170  -3.8648  -3.8648  -3.8156  -3.8156  -3.7679
    -3.6877  -3.6876  -3.5176  -3.3272  -3.3272  -3.3195  -3.2601  -3.2433
    -3.2433  -3.1834  -3.1430  -3.0808  -3.0808  -3.0300  -2.9953  -2.9952
    -2.9071  -2.9071  -2.8993  -2.7837  -2.7837  -2.7747  -2.7734  -2.6618
    -2.6618  -2.6129  -2.6129  -2.5548  -2.5548  -2.4903  -2.3998  -2.3564
    -2.3564  -2.3470  -2.2560  -2.2560  -2.2292  -2.1914  -2.1914  -2.1657
    -2.1348  -2.1348  -2.0549  -2.0512  -2.0512  -1.9712  -1.9711  -1.9422
    -1.7663  -1.7341  -1.7341  -1.3189  -1.3189  -1.1821  -0.6756  -0.6756
    -0.6616  -0.4570  -0.4395  -0.4395

     highest occupied level (ev):    -0.4395

!    total energy              =   -4185.72622899 Ry
     total all-electron energy =    -52053.936099 Ry
     estimated scf accuracy    <          1.0E-09 Ry

     The total energy is the sum of the following terms:
     one-electron contribution =   -6004.88250383 Ry
     hartree contribution      =    3151.19614333 Ry
     xc contribution           =    -609.65559141 Ry
     ewald contribution        =    1169.11550444 Ry
     one-center paw contrib.   =   -1891.49978152 Ry

     convergence has been achieved in   4 iterations

     negative rho (up, down):  5.411E-05 0.000E+00

     Forces acting on atoms (cartesian axes, Ry/au):

     atom    1 type  2   force =    -0.00001246   -0.00004796   -0.00002411
     atom    2 type  2   force =    -0.00004269    0.00000907   -0.00002865
     atom    3 type  2   force =    -0.00003301   -0.00001004    0.00001826
     atom    4 type  2   force =     0.00005214    0.00003041   -0.00002405
     atom    5 type  2   force =     0.00001557    0.00005052    0.00003292
     atom    6 type  2   force =     0.00004441   -0.00000908    0.00003880
     atom    7 type  4   force =     0.00005736   -0.00000299   -0.00005951
     atom    8 type  4   force =    -0.00002589    0.00007822    0.00001415
     atom    9 type  4   force =     0.00002865   -0.00004986    0.00008419
     atom   10 type  4   force =     0.00003793   -0.00011710   -0.00001422
     atom   11 type  4   force =    -0.00008252    0.00001251    0.00008522
     atom   12 type  4   force =    -0.00002437    0.00005187   -0.00009625
     atom   13 type  4   force =     0.00004504   -0.00007587   -0.00005615
     atom   14 type  4   force =    -0.00005222   -0.00003422    0.00010194
     atom   15 type  4   force =     0.00003259    0.00003049   -0.00009088
     atom   16 type  4   force =    -0.00004700    0.00007686   -0.00005325
     atom   17 type  4   force =     0.00003246   -0.00001562   -0.00001434
     atom   18 type  4   force =     0.00000081    0.00003322   -0.00001039
     atom   19 type  4   force =    -0.00006437    0.00008322    0.00007532
     atom   20 type  4   force =     0.00005302   -0.00009524    0.00005139
     atom   21 type  4   force =    -0.00002718   -0.00005251   -0.00009420
     atom   22 type  4   force =    -0.00011283    0.00002693   -0.00001683
     atom   23 type  4   force =    -0.00006947    0.00000474   -0.00010489
     atom   24 type  4   force =     0.00008754   -0.00001639    0.00002924
     atom   25 type  4   force =     0.00005320    0.00005791   -0.00001889
     atom   26 type  4   force =     0.00002711    0.00005074    0.00006553
     atom   27 type  4   force =     0.00000416    0.00000372    0.00003506
     atom   28 type  4   force =     0.00002390    0.00011469    0.00001995
     atom   29 type  4   force =    -0.00011537   -0.00001383    0.00003771
     atom   30 type  4   force =     0.00000442   -0.00000492   -0.00003611
     atom   31 type  4   force =     0.00000228   -0.00003290    0.00000964
     atom   32 type  4   force =    -0.00002789    0.00001999    0.00000593
     atom   33 type  4   force =     0.00010592    0.00000567   -0.00003522
     atom   34 type  4   force =    -0.00002630   -0.00010916   -0.00002033
     atom   35 type  4   force =     0.00004723   -0.00000165    0.00008517
     atom   36 type  4   force =    -0.00006373   -0.00009467    0.00003476
     atom   37 type  5   force =     0.00002638    0.00000310   -0.00003820
     atom   38 type  5   force =    -0.00001639    0.00003542    0.00002169
     atom   39 type  5   force =     0.00002673   -0.00003018    0.00002297
     atom   40 type  5   force =     0.00003984   -0.00003182   -0.00000671
     atom   41 type  5   force =    -0.00002224    0.00001395    0.00003647
     atom   42 type  5   force =     0.00000658    0.00004482   -0.00002863
     atom   43 type  3   force =     0.00001622    0.00004856   -0.00000426
     atom   44 type  3   force =     0.00001338    0.00002056    0.00004516
     atom   45 type  3   force =    -0.00002099   -0.00000137   -0.00003486
     atom   46 type  3   force =     0.00005339    0.00000095   -0.00002227
     atom   47 type  3   force =    -0.00001246    0.00001114    0.00001330
     atom   48 type  3   force =     0.00000453    0.00000323   -0.00000603
     atom   49 type  3   force =    -0.00003994    0.00001660   -0.00002602
     atom   50 type  3   force =     0.00000067   -0.00005321   -0.00002098
     atom   51 type  3   force =     0.00000851   -0.00000533   -0.00001076
     atom   52 type  3   force =    -0.00000299    0.00000914    0.00000577
     atom   53 type  3   force =    -0.00002942    0.00000717    0.00002974
     atom   54 type  3   force =    -0.00000204   -0.00001431   -0.00001192
     atom   55 type  3   force =    -0.00000227   -0.00002024   -0.00000057
     atom   56 type  3   force =    -0.00002026    0.00000662   -0.00001128
     atom   57 type  3   force =     0.00000356   -0.00000774    0.00000193
     atom   58 type  3   force =     0.00002019   -0.00002385    0.00001900
     atom   59 type  3   force =    -0.00001416    0.00004563    0.00000517
     atom   60 type  3   force =     0.00003523   -0.00002016   -0.00004341
     atom   61 type  3   force =     0.00000909   -0.00002729    0.00005010
     atom   62 type  3   force =     0.00000480   -0.00000068   -0.00000448
     atom   63 type  3   force =     0.00001179    0.00003488   -0.00003286
     atom   64 type  3   force =     0.00003897   -0.00003156    0.00000779
     atom   65 type  3   force =     0.00000743   -0.00003176   -0.00001104
     atom   66 type  3   force =    -0.00001483   -0.00000655    0.00001851
     atom   67 type  3   force =     0.00001120    0.00001337   -0.00002918
     atom   68 type  3   force =    -0.00000597    0.00001313    0.00001484
     atom   69 type  3   force =    -0.00001522    0.00001044   -0.00002076
     atom   70 type  3   force =    -0.00000929    0.00001601   -0.00002493
     atom   71 type  3   force =    -0.00000687   -0.00001611   -0.00000344
     atom   72 type  3   force =    -0.00000172   -0.00000557    0.00000644
     atom   73 type  3   force =    -0.00000305   -0.00003340   -0.00000714
     atom   74 type  3   force =     0.00001871    0.00000300   -0.00001497
     atom   75 type  3   force =    -0.00000188    0.00001908    0.00000535
     atom   76 type  3   force =    -0.00000225   -0.00000592    0.00000239
     atom   77 type  3   force =    -0.00000382   -0.00000136   -0.00000232
     atom   78 type  3   force =    -0.00001331    0.00001517    0.00001663
     atom   79 type  3   force =    -0.00000960    0.00001458    0.00000648
     atom   80 type  3   force =     0.00001870   -0.00002077    0.00002085
     atom   81 type  3   force =    -0.00003461   -0.00000619    0.00002112
     atom   82 type  3   force =    -0.00002587    0.00001849   -0.00003201
     atom   83 type  3   force =    -0.00000004    0.00000414    0.00000440
     atom   84 type  3   force =     0.00000547   -0.00003543   -0.00002904
     atom   85 type  3   force =    -0.00002361   -0.00003136    0.00001921
     atom   86 type  3   force =    -0.00003458    0.00001760   -0.00001447
     atom   87 type  3   force =     0.00000132    0.00000936   -0.00002159
     atom   88 type  3   force =     0.00000540   -0.00000638   -0.00000009
     atom   89 type  3   force =     0.00000480   -0.00001733    0.00000176
     atom   90 type  3   force =    -0.00000713    0.00002678    0.00004239
     atom   91 type  1   force =    -0.00006308   -0.00001089    0.00003362
     atom   92 type  1   force =    -0.00000474   -0.00007039   -0.00002037
     atom   93 type  1   force =     0.00002425   -0.00005665   -0.00002973
     atom   94 type  1   force =    -0.00002300    0.00005909    0.00003496
     atom   95 type  1   force =    -0.00004052    0.00001627   -0.00006117
     atom   96 type  1   force =     0.00003271   -0.00004113    0.00004213
     atom   97 type  1   force =    -0.00003629   -0.00001205    0.00005163
     atom   98 type  1   force =     0.00004010    0.00001660   -0.00005322
     atom   99 type  1   force =    -0.00002760    0.00003981   -0.00004064
     atom  100 type  1   force =    -0.00003424   -0.00004256    0.00002960
     atom  101 type  1   force =    -0.00005420    0.00002439   -0.00001809
     atom  102 type  1   force =    -0.00000427   -0.00003596   -0.00004970
     atom  103 type  1   force =    -0.00003190    0.00001691   -0.00004936
     atom  104 type  1   force =    -0.00005184   -0.00000864    0.00003283
     atom  105 type  1   force =     0.00003466   -0.00001797    0.00005551
     atom  106 type  1   force =    -0.00000006   -0.00006097   -0.00001880
     atom  107 type  1   force =     0.00000028    0.00007002    0.00002198
     atom  108 type  1   force =     0.00003965    0.00005213   -0.00000476
     atom  109 type  1   force =     0.00003417   -0.00006177   -0.00001500
     atom  110 type  1   force =     0.00006042    0.00000958   -0.00003697
     atom  111 type  1   force =     0.00001520   -0.00003461    0.00006232
     atom  112 type  1   force =     0.00004828   -0.00000886   -0.00005195
     atom  113 type  1   force =     0.00005580    0.00001773   -0.00002941
     atom  114 type  1   force =    -0.00001505    0.00005013   -0.00005817
     atom  115 type  1   force =    -0.00002111    0.00006245    0.00000881
     atom  116 type  1   force =    -0.00004412    0.00000609    0.00006984
     atom  117 type  1   force =     0.00002777    0.00002780    0.00004850
     atom  118 type  1   force =     0.00005671   -0.00000162    0.00001184
     atom  119 type  1   force =     0.00005119   -0.00001749    0.00005541
     atom  120 type  1   force =     0.00000639    0.00005877    0.00002618

     Total force =     0.000726     Total SCF correction =     0.000080
     SCF correction compared to forces is large: reduce conv_thr to get better values


     Computing stress (Cartesian axis) and pressure


     negative rho (up, down):  5.411E-05 0.000E+00
          total   stress  (Ry/bohr**3)                   (kbar)     P=        0.13
   0.00000090   0.00000002   0.00000002            0.13        0.00        0.00
   0.00000002   0.00000087   0.00000001            0.00        0.13        0.00
   0.00000002   0.00000001   0.00000087            0.00        0.00        0.13

     Energy error            =      2.3E-06 Ry
     Gradient error          =      1.2E-04 Ry/Bohr
     Cell gradient error     =      1.3E-01 kbar

     number of scf cycles    =   2
     number of bfgs steps    =   1

     enthalpy           old  =   -4185.7262266912 Ry
     enthalpy           new  =   -4185.7262289886 Ry

     CASE: enthalpy          _new < enthalpy          _old

     new trust radius        =       0.0010991734 bohr
     new conv_thr            =            1.0E-10 Ry

     new unit-cell volume =  15315.16305 a.u.^3 (  2269.47302 Ang^3 )
     density =      1.25710 g/cm^3

CELL_PARAMETERS (alat= 27.52059178)
   0.999212176  -0.001499532  -0.001074094
   0.472632008   0.880367344  -0.001074328
   0.472632136   0.282217959   0.833907302

ATOMIC_POSITIONS (crystal)
Zr               0.8749148369        0.1199960417        0.1245575909
Zr               0.1245584288        0.8749145737        0.1199952698
Zr               0.1199954876        0.1245579258        0.8749149058
Zr               0.8836241463        0.8800817239        0.1271234588
Zr               0.1271231382        0.8836244535        0.8800821902
Zr               0.8800825612        0.1271236105        0.8836236053
O                0.9169334861        0.2642552910        0.0862787424
O                0.0862783823        0.9169332406        0.2642557705
O                0.2642560798        0.0862782603        0.9169331314
O                0.9151363827        0.0881534026        0.7375613901
O                0.0881528829        0.7375620878        0.9151361015
O                0.7375612984        0.9151361130        0.0881539947
O                0.9204067021        0.7632165431        0.0451716725
O                0.7632170710        0.0451701775        0.9204071244
O                0.2448735752        0.9532822903        0.0827313517
O                0.0451712326        0.9204068674        0.7632169272
O                0.8368166899        0.0467031626        0.0501607940
O                0.0501612225        0.8368164248        0.0467028910
O                0.0827309135        0.2448749444        0.9532814819
O                0.9532813553        0.0827310207        0.2448745833
O                0.2676720290        0.7357669523        0.0808038183
O                0.0808036731        0.2676719961        0.7357665935
O                0.7282168178        0.2627933587        0.0827011906
O                0.9242572954        0.7348586142        0.2644138295
O                0.2644135956        0.9242570731        0.7348590701
O                0.7348588815        0.2644138290        0.9242569462
O                0.0467033392        0.0501610991        0.8368161331
O                0.7453256184        0.9184132046        0.2748424006
O                0.0827016517        0.7282166285        0.2627931455
O                0.9574480295        0.9542887901        0.1643952537
O                0.9542886763        0.1643957262        0.9574476551
O                0.1643954104        0.9574479871        0.9542885066
O                0.9184128275        0.2748420903        0.7453260843
O                0.2627932111        0.0827013708        0.7282166291
O                0.2748419988        0.7453260870        0.9184132458
O                0.7357666309        0.0808040490        0.2676718659
N                0.7991722446        0.4600250534        0.1167600312
N                0.1167588296        0.7991720085        0.4600258834
N                0.4600267728        0.1167582531        0.7991717223
N                0.8166510758        0.5987437775        0.4318422166
N                0.5987440245        0.4318423337        0.8166507699
N                0.4318417736        0.8166514801        0.5987438196
C                0.0039513362        0.7081218180        0.9841405831
C                0.9841403686        0.0039519442        0.7081215994
C                0.0151627823       -0.0012607327        0.2987807780
C                0.7081219247        0.9841403413        0.0039514219
C               -0.0042932590        0.4051289624        0.0079442956
C                0.4051288177        0.0079441315       -0.0042929449
C                0.2987806419        0.0151642486       -0.0012618472
C               -0.0012600631        0.2987805242        0.0151626108
C                0.8980385646        0.4794669030        0.0585298882
C                0.0585292108        0.8980384823        0.4794673508
C                0.0980079341        0.5298485204        0.9412985383
C                0.9918582843        0.0020394914        0.6027640506
C                0.0020394917        0.6027641657        0.9918582042
C                0.6027641699        0.9918578144        0.0020395496
C                0.0079439140       -0.0042930045        0.4051288783
C                0.9501068171        0.0933305955        0.4330935277
C                0.3108260975        0.7001343568        0.9993453065
C                0.7001346647        0.9993451256        0.3108257399
C                0.9993450479        0.3108257830        0.7001344561
C                0.5941243169        0.4066772397       -0.0016265712
C                0.0028890284        0.6909331996        0.3055811393
C                0.6909332994        0.3055811317        0.0028887886
C                0.9412988157        0.0980084533        0.5298478358
C                0.5777403154        0.0486152884        0.9045076892
C                0.4330931558        0.9501071969        0.0933306162
C                0.0933306094        0.4330937938        0.9501064045
C                0.0486159712        0.9045076956        0.5777397254
C                0.5298477703        0.9412987902        0.0980085745
C                0.9045073061        0.5777396248        0.0486167544
C                0.4794675272        0.0585289064        0.8980383615
C                0.4481443253        0.0873446173        0.5409182680
C                0.9116148180        0.4598664870        0.5597576682
C                0.5597576728        0.9116148764        0.4598666723
C                0.9077744102        0.5523332146        0.4638304169
C                0.4638300691        0.9077746585        0.5523333247
C                0.5986839191        1.0001880314        0.4093759835
C                0.5523332671        0.4638305959        0.9077744473
C                0.4598667965        0.5597576279        0.9116148215
C                0.0873442400        0.5409184225        0.4481448093
C                0.5409183331        0.4481448932        0.0873441553
C               -0.0016264782        0.5941242033        0.4066773144
C                0.4501608741        0.5422103582        0.0898079797
C                0.5422104223        0.0898081799        0.4501605133
C                0.0898079846        0.4501606598        0.5422105640
C                1.0001877806        0.4093758679        0.5986839460
C                0.4066770353       -0.0016262542        0.5941239164
C                0.4093759065        0.5986840824        1.0001878190
C                0.3055810982        0.0028891227        0.6909328953
H                0.1741674911        0.5499819485        0.8974590293
H                0.8974598148        0.1741679265        0.5499810400
H                0.8311446450        0.6357906643        0.0864885572
H                0.1664439977        0.3745482252        0.9128901021
H                0.5499807369        0.8974599137        0.1741680640
H                0.9128908356        0.1664442920        0.3745473736
H                0.6357919462        0.0864864971        0.8311447073
H                0.3745468855        0.9128914991        0.1664443623
H                0.0864875236        0.8311447673        0.6357912173
H                0.5727453531        0.1593826414        0.4095263878
H                0.1593824104        0.4095266099        0.5727454545
H                0.4095265642        0.5727453514        0.1593824413
H                0.5734166017        0.4020966100        0.1560557473
H                0.1560558413        0.5734165540        0.4020967294
H                0.4272539468        0.6051394544        0.8429296772
H                0.4020962675        0.1560562077        0.5734161236
H                0.6051393771        0.8429296960        0.4272541725
H                0.7927892092        0.3932648126        0.1172011436
H                0.7303076998        0.5248374152        0.1292078708
H                0.8429296569        0.4272537681        0.6051392618
H                0.8201077797        0.6571170360        0.3567300310
H                0.3567296123        0.8201080180        0.6571172508
H                0.7652572252        0.5546156791        0.4653014221
H                0.1292062814        0.7303077336        0.5248382558
H                0.6571176233        0.3567299826        0.8201077528
H                0.5248393290        0.1292050537        0.7303077029
H                0.1171999067        0.7927891029        0.3932655498
H                0.3932661139        0.1171997475        0.7927886388
H                0.5546163432        0.4653012907        0.7652571554
H                0.4653013649        0.7652571482        0.5546161690



     Writing config-only to output data dir ./pwscf.save/ :
     XML data file
     NEW-OLD atomic charge density approx. for the potential

     Check: negative core charge=   -0.000002

     negative rho (up, down):  5.440E-05 0.000E+00

     total cpu time spent up to now is      252.0 secs

     Self-consistent Calculation

     iteration #  1     ecut=    90.00 Ry     beta= 0.70
     Davidson diagonalization with overlap
     ethr =  1.00E-06,  avg # of iterations =  2.0

     Threshold (ethr) on eigenvalues was too large:
     Diagonalizing with lowered threshold

     Davidson diagonalization with overlap
     ethr =  3.39E-10,  avg # of iterations =  7.0

     negative rho (up, down):  5.430E-05 0.000E+00

     total cpu time spent up to now is      269.4 secs

     total energy              =   -4185.72623061 Ry
     estimated scf accuracy    <       0.00000035 Ry

     iteration #  2     ecut=    90.00 Ry     beta= 0.70
     Davidson diagonalization with overlap
     ethr =  6.99E-11,  avg # of iterations =  9.0

     negative rho (up, down):  5.429E-05 0.000E+00

     total cpu time spent up to now is      277.4 secs

     total energy              =   -4185.72623069 Ry
     estimated scf accuracy    <       0.00000013 Ry

     iteration #  3     ecut=    90.00 Ry     beta= 0.70
     Davidson diagonalization with overlap
     ethr =  2.59E-11,  avg # of iterations =  6.0

     negative rho (up, down):  5.427E-05 0.000E+00

     total cpu time spent up to now is      284.3 secs

     total energy              =   -4185.72623072 Ry
     estimated scf accuracy    <          7.3E-09 Ry

     iteration #  4     ecut=    90.00 Ry     beta= 0.70
     Davidson diagonalization with overlap
     ethr =  1.45E-12,  avg # of iterations =  7.0

     negative rho (up, down):  5.427E-05 0.000E+00

     total cpu time spent up to now is      293.9 secs

     total energy              =   -4185.72623073 Ry
     estimated scf accuracy    <          7.3E-10 Ry

     iteration #  5     ecut=    90.00 Ry     beta= 0.70
     Davidson diagonalization with overlap
     ethr =  1.46E-13,  avg # of iterations =  8.0

     negative rho (up, down):  5.426E-05 0.000E+00

     total cpu time spent up to now is      304.6 secs

     total energy              =   -4185.72623073 Ry
     estimated scf accuracy    <          2.9E-10 Ry

     iteration #  6     ecut=    90.00 Ry     beta= 0.70
     Davidson diagonalization with overlap
     ethr =  1.00E-13,  avg # of iterations =  7.0

     negative rho (up, down):  5.426E-05 0.000E+00

     total cpu time spent up to now is      310.2 secs

     End of self-consistent calculation

          k = 0.0000 0.0000 0.0000 (110398 PWs)   bands (ev):

   -49.2770 -49.2610 -49.2609 -49.2459 -49.2427 -49.2427 -27.7812 -27.6761
   -27.6761 -27.5742 -27.5742 -27.5661 -27.4330 -27.3894 -27.3893 -27.3826
   -27.3826 -27.3551 -27.2831 -27.2831 -27.2466 -27.2315 -27.2314 -27.2314
   -22.4698 -22.4308 -22.4308 -22.4056 -22.4056 -22.3881 -22.2160 -22.1715
   -22.1483 -22.1483 -22.1121 -22.1120 -20.1837 -20.1671 -20.1670 -20.1311
   -20.1311 -20.0960 -19.9606 -19.9606 -19.9096 -19.9096 -19.8605 -19.8248
   -18.7013 -18.6976 -18.6976 -18.4489 -18.4488 -18.4488 -17.6652 -17.4389
   -17.4389 -17.2455 -17.2455 -17.2118 -16.5642 -16.5642 -16.5636 -16.3411
   -16.3409 -16.3409 -14.6135 -14.6135 -14.6054 -14.3891 -14.3690 -14.3690
   -13.6550 -13.6550 -13.6507 -13.4358 -13.4352 -13.4351 -11.9863 -11.9601
   -11.9601 -11.7616 -11.7096 -11.7096 -10.6537 -10.6499 -10.6499 -10.4234
   -10.4233 -10.4133  -9.9274  -9.9274  -9.8021  -9.7178  -9.6110  -9.5484
    -9.5484  -9.5189  -9.5188  -9.3910  -9.3141  -9.3141  -8.6542  -8.6041
    -8.6041  -8.3966  -8.3494  -8.3493  -8.2458  -8.0909  -8.0908  -8.0057
    -7.9666  -7.9665  -7.8163  -7.7508  -7.7508  -7.6337  -7.6336  -7.5963
    -7.5118  -7.5117  -7.4357  -7.4357  -7.4195  -7.3270  -7.3170  -7.3170
    -7.2312  -7.1438  -7.1438  -6.9518  -6.9517  -6.9381  -6.9295  -6.7979
    -6.7564  -6.7563  -6.7190  -6.5362  -6.5362  -6.4402  -6.4402  -6.4165
    -6.3458  -6.2146  -6.2146  -6.1526  -6.0136  -6.0136  -5.9993  -5.9580
    -5.9580  -5.8849  -5.8599  -5.8599  -5.7526  -5.7525  -5.7416  -5.6570
    -5.6551  -5.6550  -5.4173  -5.3471  -5.3471  -5.1672  -5.0044  -4.9915
    -4.9915  -4.9334  -4.9334  -4.8025  -4.7635  -4.7453  -4.7453  -4.5896
    -4.5895  -4.5615  -4.5398  -4.5398  -4.4643  -4.0713  -4.0713  -4.0519
    -3.9311  -3.9177  -3.9177  -3.8656  -3.8656  -3.8161  -3.8161  -3.7686
    -3.6885  -3.6885  -3.5181  -3.3277  -3.3277  -3.3201  -3.2606  -3.2438
    -3.2438  -3.1847  -3.1434  -3.0814  -3.0814  -3.0308  -2.9959  -2.9959
    -2.9078  -2.9078  -2.9000  -2.7843  -2.7843  -2.7753  -2.7741  -2.6626
    -2.6626  -2.6137  -2.6137  -2.5556  -2.5556  -2.4911  -2.4006  -2.3573
    -2.3572  -2.3478  -2.2569  -2.2569  -2.2301  -2.1922  -2.1922  -2.1665
    -2.1356  -2.1356  -2.0557  -2.0522  -2.0522  -1.9716  -1.9716  -1.9427
    -1.7667  -1.7346  -1.7346  -1.3201  -1.3201  -1.1834  -0.6761  -0.6761
    -0.6621  -0.4574  -0.4400  -0.4400

     highest occupied level (ev):    -0.4400

!    total energy              =   -4185.72623073 Ry
     total all-electron energy =    -52053.936100 Ry
     estimated scf accuracy    <          3.0E-11 Ry

     The total energy is the sum of the following terms:
     one-electron contribution =   -6004.88124242 Ry
     hartree contribution      =    3151.17879070 Ry
     xc contribution           =    -609.65037116 Ry
     ewald contribution        =    1169.12613737 Ry
     one-center paw contrib.   =   -1891.49954521 Ry

     convergence has been achieved in   6 iterations

     negative rho (up, down):  5.426E-05 0.000E+00

     Forces acting on atoms (cartesian axes, Ry/au):

     atom    1 type  2   force =    -0.00001609   -0.00004815   -0.00001901
     atom    2 type  2   force =    -0.00004109    0.00001144   -0.00002904
     atom    3 type  2   force =    -0.00004854   -0.00002472    0.00001215
     atom    4 type  2   force =     0.00004560    0.00003254   -0.00001044
     atom    5 type  2   force =     0.00002004    0.00003286    0.00002690
     atom    6 type  2   force =     0.00004157   -0.00000308    0.00003323
     atom    7 type  4   force =     0.00002094   -0.00004017   -0.00003951
[...]
     atom   26 type  4   force =    -0.00000150    0.00000626    0.00001060
     atom   27 type  4   force =     0.00000805   -0.00000028    0.00000597
     atom   28 type  4   force =    -0.00000154    0.00000153    0.00000169
     atom   29 type  4   force =    -0.00000709   -0.00000602    0.00000585
     atom   30 type  4   force =    -0.00000377    0.00000000   -0.00000271
     atom   31 type  4   force =     0.00000222   -0.00000394   -0.00000203
     atom   32 type  4   force =    -0.00000352   -0.00000089   -0.00000023
     atom   33 type  4   force =     0.00002370    0.00000644   -0.00001242
     atom   34 type  4   force =     0.00000193    0.00000791   -0.00000128
     atom   35 type  4   force =    -0.00000073   -0.00000078   -0.00000110
     atom   36 type  4   force =     0.00000172    0.00000393   -0.00000045
     atom   37 type  5   force =     0.00000001    0.00000774    0.00000759
     atom   38 type  5   force =     0.00000174   -0.00000206   -0.00001195
     atom   39 type  5   force =     0.00001206    0.00000571   -0.00000572
     atom   40 type  5   force =    -0.00001004    0.00000633   -0.00001646
     atom   41 type  5   force =     0.00000793   -0.00001757    0.00000414
     atom   42 type  5   force =    -0.00001331   -0.00000443    0.00000618
     atom   43 type  3   force =    -0.00000122   -0.00000426   -0.00000477
     atom   44 type  3   force =    -0.00001982    0.00004200   -0.00000171
     atom   45 type  3   force =     0.00000499   -0.00000239    0.00000399
     atom   46 type  3   force =    -0.00000011    0.00001415   -0.00003596
     atom   47 type  3   force =     0.00000299    0.00000423    0.00000436
     atom   48 type  3   force =     0.00000305    0.00000382    0.00000073
     atom   49 type  3   force =     0.00000671    0.00000030    0.00000125
     atom   50 type  3   force =    -0.00000149    0.00000595    0.00000604
     atom   51 type  3   force =     0.00000107   -0.00000814    0.00000512
     atom   52 type  3   force =     0.00000622   -0.00000292   -0.00000219
     atom   53 type  3   force =     0.00000267    0.00000838    0.00000013
     atom   54 type  3   force =     0.00000241   -0.00001561   -0.00000133
     atom   55 type  3   force =    -0.00000153   -0.00000222    0.00000153
     atom   56 type  3   force =    -0.00000199   -0.00000126    0.00000697
     atom   57 type  3   force =     0.00000432    0.00000285   -0.00000011
     atom   58 type  3   force =     0.00000130   -0.00000971   -0.00000368
     atom   59 type  3   force =     0.00000470   -0.00000602    0.00000217
     atom   60 type  3   force =    -0.00000157    0.00000309    0.00000314
     atom   61 type  3   force =    -0.00004253    0.00000359    0.00000057
     atom   62 type  3   force =    -0.00000249   -0.00000433   -0.00000458
     atom   63 type  3   force =     0.00000537    0.00000036   -0.00000526
     atom   64 type  3   force =    -0.00000447   -0.00000968   -0.00000995
     atom   65 type  3   force =     0.00000240    0.00000960    0.00000662
     atom   66 type  3   force =     0.00000618    0.00000670   -0.00000940
     atom   67 type  3   force =     0.00000461    0.00000316   -0.00000563
     atom   68 type  3   force =    -0.00000526   -0.00000204    0.00000484
     atom   69 type  3   force =     0.00000450    0.00000715   -0.00000006
     atom   70 type  3   force =    -0.00000068    0.00000179   -0.00000782
     atom   71 type  3   force =     0.00000054    0.00000765    0.00000674
     atom   72 type  3   force =    -0.00000620    0.00000675    0.00000138
     atom   73 type  3   force =    -0.00000767   -0.00000539    0.00000560
     atom   74 type  3   force =    -0.00000755    0.00000201   -0.00000716
     atom   75 type  3   force =     0.00000159    0.00000989   -0.00000295
     atom   76 type  3   force =     0.00000678   -0.00000717    0.00000796
     atom   77 type  3   force =     0.00000254   -0.00000114   -0.00000498
     atom   78 type  3   force =    -0.00000491   -0.00000647    0.00000312
     atom   79 type  3   force =    -0.00000830    0.00000836   -0.00000453
     atom   80 type  3   force =     0.00000255   -0.00000752    0.00000454
     atom   81 type  3   force =     0.00000118   -0.00000720    0.00000864
     atom   82 type  3   force =    -0.00000738    0.00000806   -0.00000290
     atom   83 type  3   force =    -0.00001426    0.00000092   -0.00000186
     atom   84 type  3   force =     0.00001091   -0.00001112   -0.00000006
     atom   85 type  3   force =     0.00000756    0.00000758    0.00000009
     atom   86 type  3   force =    -0.00000381    0.00001244   -0.00001074
     atom   87 type  3   force =     0.00001218   -0.00000291    0.00000203
     atom   88 type  3   force =    -0.00000220   -0.00000201   -0.00000125
     atom   89 type  3   force =    -0.00000137    0.00000354    0.00000096
     atom   90 type  3   force =    -0.00000332   -0.00001157   -0.00000667
     atom   91 type  1   force =    -0.00000804    0.00000341   -0.00000670
     atom   92 type  1   force =    -0.00000840   -0.00000752    0.00000467
     atom   93 type  1   force =    -0.00000042   -0.00000017   -0.00000028
     atom   94 type  1   force =     0.00000313    0.00000485    0.00000791
     atom   95 type  1   force =     0.00000150   -0.00001019   -0.00000224
     atom   96 type  1   force =     0.00000879   -0.00000081    0.00000125
     atom   97 type  1   force =    -0.00000058   -0.00000070    0.00000078
     atom   98 type  1   force =     0.00000380    0.00000721   -0.00000037
     atom   99 type  1   force =     0.00000100   -0.00000264    0.00000228
     atom  100 type  1   force =     0.00000132   -0.00000093    0.00000658
     atom  101 type  1   force =     0.00000604    0.00000392    0.00000195
     atom  102 type  1   force =     0.00000617    0.00000242    0.00000134
     atom  103 type  1   force =     0.00000301   -0.00000293   -0.00000282
     atom  104 type  1   force =    -0.00000308    0.00000424   -0.00000141
     atom  105 type  1   force =    -0.00000535   -0.00000138    0.00000385
     atom  106 type  1   force =    -0.00000080   -0.00000348    0.00000325
     atom  107 type  1   force =    -0.00000430    0.00000175   -0.00000477
     atom  108 type  1   force =     0.00000358   -0.00000256   -0.00000100
     atom  109 type  1   force =     0.00000226   -0.00000171   -0.00000236
     atom  110 type  1   force =     0.00000378   -0.00000583   -0.00000425
     atom  111 type  1   force =     0.00000412   -0.00000618    0.00001105
     atom  112 type  1   force =     0.00000759    0.00000041   -0.00000770
     atom  113 type  1   force =    -0.00000863   -0.00000710    0.00000698
     atom  114 type  1   force =    -0.00000004   -0.00000127    0.00000642
     atom  115 type  1   force =    -0.00000369    0.00001284    0.00000221
     atom  116 type  1   force =    -0.00000155   -0.00000111    0.00000459
     atom  117 type  1   force =     0.00000437    0.00000628    0.00000438
     atom  118 type  1   force =    -0.00000351    0.00000037    0.00000393
     atom  119 type  1   force =    -0.00001500    0.00000665   -0.00000949
     atom  120 type  1   force =     0.00000031   -0.00000678   -0.00000747

     Total force =     0.000137     Total SCF correction =     0.000028
     SCF correction compared to forces is large: reduce conv_thr to get better values


     Computing stress (Cartesian axis) and pressure


     negative rho (up, down):  5.500E-05 0.000E+00
          total   stress  (Ry/bohr**3)                   (kbar)     P=        0.00
   0.00000002   0.00000001   0.00000002            0.00        0.00        0.00
   0.00000001  -0.00000000   0.00000000            0.00       -0.00        0.00
   0.00000002   0.00000000  -0.00000000            0.00        0.00       -0.00

     Message from routine bfgs:
     history already reset at previous step: exiting
     Energy error            =      3.0E-09 Ry
     Gradient error          =      4.3E-05 Ry/Bohr
     Cell gradient error     =      2.7E-03 kbar

     bfgs failed after  40 scf cycles and  39 bfgs steps, convergence not achieved
     (criteria: energy <  3.6E-06 Ry, force <  1.0E-05 Ry/Bohr, cell <  5.0E-01 kbar)

     End of BFGS Geometry Optimization

     Final enthalpy           =   -4185.7262370821 Ry

     File ./pwscf.bfgs deleted, as requested
Begin final coordinates
     new unit-cell volume =  15323.50573 a.u.^3 (  2270.70927 Ang^3 )
     density =      1.25641 g/cm^3

CELL_PARAMETERS (alat= 27.52059178)
   0.999445745  -0.001435811  -0.001028963
   0.472798893   0.880542647  -0.001028889
   0.472798589   0.282317612   0.834058213

ATOMIC_POSITIONS (crystal)
Zr               0.8749135641        0.1200173540        0.1244979047
Zr               0.1244978054        0.8749136947        0.1200173508
Zr               0.1200173729        0.1244979875        0.8749135355
Zr               0.8835661646        0.8801373747        0.1271337762
Zr               0.1271339649        0.8835661156        0.8801374257
Zr               0.8801375188        0.1271338585        0.8835662877
O                0.9170719777        0.2641788905        0.0861961986
O                0.0861960944        0.9170716406        0.2641790468
O                0.2641789314        0.0861960730        0.9170717928
O                0.9152784543        0.0879028601        0.7376363350
O                0.0879025973        0.7376364077        0.9152785764
O                0.7376365937        0.9152791195        0.0879014104
O                0.9203452397        0.7629706324        0.0455754917
O                0.7629709324        0.0455760906        0.9203440244
O                0.2449927118        0.9530587605        0.0827409293
O                0.0455752394        0.9203450893        0.7629708199
O                0.8368813287        0.0467118622        0.0500722438
O                0.0500724198        0.8368814639        0.0467116968
O                0.0827409170        0.2449929573        0.9530584304
O                0.9530586887        0.0827408043        0.2449928462
O                0.2675780983        0.7357038458        0.0808496089
O                0.0808491541        0.2675783276        0.7357036358
O                0.7282923712        0.2628443989        0.0826275011
O                0.9241780654        0.7349896038        0.2645216730
O                0.2645217668        0.9241782318        0.7349893020
O                0.7349897165        0.2645219962        0.9241778841
O                0.0467116342        0.0500724124        0.8368814371
O                0.7452160041        0.9185240243        0.2747468147
O                0.0826272785        0.7282925941        0.2628444818
O                0.9574215423        0.9543436389        0.1643516311
O                0.9543435769        0.1643516698        0.9574217270
O                0.1643514761        0.9574217430        0.9543437447
O                0.9185235918        0.2747470775        0.7452160462
O                0.2628447348        0.0826270756        0.7282923936
O                0.2747473469        0.7452163266        0.9185239084
O                0.7357038304        0.0808493701        0.2675781593
N                0.7992498241        0.4599191927        0.1167255976
N                0.1167244832        0.7992488297        0.4599200568
N                0.4599194053        0.1167242099        0.7992489628
N                0.8167458059        0.5986956637        0.4318255544
N                0.5986952054        0.4318254081        0.8167460440
N                0.4318253686        0.8167460158        0.5986955035
C                0.0038305617        0.7080344447        0.9843847118
C                0.9843853905        0.0038295501        0.7080344966
C                0.0150407486       -0.0012009943        0.2987928168
C                0.7080344038        0.9843844851        0.0038304751
C               -0.0042656218        0.4051067637        0.0079094376
C                0.4051066805        0.0079097519       -0.0042660071
C                0.2987925171        0.0150409973       -0.0012008976
C               -0.0012006379        0.2987926768        0.0150407323
C                0.8980791038        0.4793861083        0.0585393754
C                0.0585388214        0.8980784476        0.4793864209
C                0.0979427692        0.5298321169        0.9414152029
C                0.9920166687        0.0019831999        0.6026936041
C                0.0019836590        0.6026934104        0.9920166212
C                0.6026934315        0.9920171611        0.0019827616
C                0.0079094124       -0.0042661990        0.4051070631
C                0.9501270400        0.0933060668        0.4331174205
C                0.3107483784        0.7000499157        0.9994268735
C                0.7000497951        0.9994267345        0.3107483107
C                0.9994275247        0.3107483859        0.7000495242
C                0.5941816432        0.4067131067       -0.0016519880
C                0.0028174125        0.6910209142        0.3056555825
C                0.6910206561        0.3056555947        0.0028179772
C                0.9414157385        0.0979420605        0.5298322983
C                0.5776179045        0.0487269884        0.9045015013
C                0.4331168243        0.9501278059        0.0933062402
C                0.0933064656        0.4331172896        0.9501266668
C                0.0487271095        0.9045012774        0.5776182777
C                0.5298320160        0.9414163278        0.0979423901
C                0.9045023206        0.5776177717        0.0487272925
C                0.4793861859        0.0585389014        0.8980784623
C                0.4481942279        0.0872826102        0.5409813372
C                0.9117069008        0.4598118478        0.5596923091
C                0.5596923844        0.9117066196        0.4598117628
C                0.9078315718        0.5523158479        0.4638207628
C                0.4638208489        0.9078317565        0.5523154438
C                0.5986366311        1.0002422899        0.4093279733
C                0.5523155825        0.4638207063        0.9078320168
C                0.4598117229        0.5596924863        0.9117069005
C                0.0872822295        0.5409819955        0.4481941531
C                0.5409816212        0.4481939141        0.0872827196
C               -0.0016522355        0.5941819884        0.4067132063
C                0.4501865669        0.5422052073        0.0897842162
C                0.5422050554        0.0897838166        0.4501868625
C                0.0897839474        0.4501868374        0.5422053595
C                1.0002420421        0.4093282249        0.5986363909
C                0.4067130662       -0.0016521755        0.5941815912
C                0.4093281154        0.5986365051        1.0002423578
C                0.3056552836        0.0028179268        0.6910207629
H                0.1740809171        0.5499647028        0.8976096068
H                0.8976103382        0.1740804011        0.5499649070
H                0.8311275803        0.6355974123        0.0866483668
H                0.1664314137        0.3746408269        0.9128616757
H                0.5499643441        0.8976114895        0.1740804042
H                0.9128624955        0.1664311544        0.3746408481
H                0.6355976136        0.0866477174        0.8311264425
H                0.3746403368        0.9128635025        0.1664314281
H                0.0866479020        0.8311266379        0.6355978072
H                0.5727275407        0.1593411263        0.4095842983
H                0.1593409027        0.4095846296        0.5727276842
H                0.4095842103        0.5727273160        0.1593414064
H                0.5735077879        0.4022055637        0.1559503895
H                0.1559499398        0.5735081672        0.4022060017
H                0.4271712566        0.6050145985        0.8430660258
H                0.4022056815        0.1559502387        0.5735077919
H                0.6050146916        0.8430659448        0.4271710504
H                0.7928979615        0.3931796526        0.1171330825
H                0.7303793625        0.5246882764        0.1292282700
H                0.8430658215        0.4271713706        0.6050143825
H                0.8201821752        0.6571156455        0.3567567669
H                0.3567567351        0.8201825511        0.6571154444
H                0.7654173226        0.5545385816        0.4652109899
H                0.1292268171        0.7303786157        0.5246887559
H                0.6571153664        0.3567566498        0.8201825152
H                0.5246887301        0.1292262435        0.7303785110
H                0.1171317814        0.7928971910        0.3931801320
H                0.3931799688        0.1171315200        0.7928973007
H                0.5545385985        0.4652112129        0.7654173094
H                0.4652111239        0.7654168994        0.5545388427
End final coordinates



     Writing config-only to output data dir ./pwscf.save/ :
     XML data file

     Writing all to output data dir ./pwscf.save/ :
     XML data file, charge density, pseudopotentials, collected wavefunctions

     init_run     :      4.72s CPU      5.38s WALL (       1 calls)
     electrons    :   2613.61s CPU   2663.02s WALL (      40 calls)
     update_pot   :      4.99s CPU      5.54s WALL (      39 calls)
     forces       :     83.05s CPU     84.63s WALL (      40 calls)
     stress       :    132.39s CPU    133.28s WALL (      40 calls)

     Called by init_run:
     wfcinit      :      2.81s CPU      2.88s WALL (       1 calls)
     potinit      :      0.29s CPU      0.34s WALL (       1 calls)
     hinit0       :      0.58s CPU      0.78s WALL (       1 calls)

     Called by electrons:
     c_bands      :   2345.34s CPU   2383.69s WALL (     326 calls)
     sum_band     :    196.33s CPU    200.58s WALL (     326 calls)
     v_of_rho     :     10.58s CPU     11.83s WALL (     327 calls)
     newd         :     44.56s CPU     45.82s WALL (     327 calls)
     PAW_pot      :     20.02s CPU     21.58s WALL (     366 calls)
     mix_rho      :      2.75s CPU      2.79s WALL (     326 calls)

     Called by c_bands:
     init_us_2    :      4.23s CPU      4.85s WALL (     692 calls)
     regterg      :   2340.93s CPU   2378.01s WALL (     326 calls)

     Called by *egterg:
     rdiaghg      :    216.37s CPU    218.83s WALL (    2477 calls)
     h_psi        :   1155.35s CPU   1174.13s WALL (    2556 calls)
     s_psi        :    437.70s CPU    438.25s WALL (    2556 calls)
     g_psi        :      0.46s CPU      0.46s WALL (    2229 calls)

     Called by h_psi:
     h_psi:calbec :    460.43s CPU    471.43s WALL (    2556 calls)
     vloc_psi     :    248.45s CPU    255.71s WALL (    2556 calls)
     vloc_psi:tg_ :      0.75s CPU      0.77s WALL (    2556 calls)
     add_vuspsi   :    444.97s CPU    445.47s WALL (    2556 calls)

     General routines
     calbec       :    674.66s CPU    689.98s WALL (    3121 calls)
     fft          :     13.51s CPU     14.16s WALL (    4395 calls)
     ffts         :      1.36s CPU      1.37s WALL (     653 calls)
     fftw         :    269.32s CPU    277.33s WALL (  344332 calls)
     interpolate  :      1.76s CPU      1.78s WALL (     327 calls)

     Parallel routines
     fft_scatt_xy :     11.64s CPU     11.95s WALL (  349380 calls)
     fft_scatt_yz :    222.29s CPU    229.48s WALL (  349380 calls)
     fft_scatt_tg :      1.03s CPU      1.06s WALL (  344332 calls)

     PWSCF        :  47m51.20s CPU  48m46.86s WALL


   This run was terminated on:   7:54:24   4Jun2025            

=------------------------------------------------------------------------------=
   JOB DONE.
=------------------------------------------------------------------------------=
