
                                 *****************
                                 * O   R   C   A *
                                 *****************

                                            #,                                       
                                            ###                                      
                                            ####                                     
                                            #####                                    
                                            ######                                   
                                           ########,                                 
                                     ,,################,,,,,                         
                               ,,#################################,,                 
                          ,,##########################################,,             
                       ,#########################################, ''#####,          
                    ,#############################################,,   '####,        
                  ,##################################################,,,,####,       
                ,###########''''           ''''###############################       
              ,#####''   ,,,,##########,,,,          '''####'''          '####       
            ,##' ,,,,###########################,,,                        '##       
           ' ,,###''''                  '''############,,,                           
         ,,##''                                '''############,,,,        ,,,,,,###''
      ,#''                                            '''#######################'''  
     '                                                          ''''####''''         
             ,#######,   #######,   ,#######,      ##                                
            ,#'     '#,  ##    ##  ,#'     '#,    #''#        ,####,    ,#,          
            ##       ##  ##   ,#'  ##            #'  '#       #'       ,# #          
            ##       ##  #######   ##           ,######,      #####,      #          
            '#,     ,#'  ##    ##  '#,     ,#' ,#      #,     #,   #      #          
             '#######'   ##     ##  '#######'  #'      '#     '####' #    #          



                #########################################################
                #                        -***-                          #
                #          Department of theory and spectroscopy        #
                #                                                       #
                #                      Frank Neese                      #
                #                                                       #
                #     Directorship, Architecture, Infrastructure        #
                #                    SHARK, DRIVERS                     #
                #        Core code/Algorithms in most modules           #
                #                                                       #
                #        Max Planck Institute fuer Kohlenforschung      #
                #                Kaiser Wilhelm Platz 1                 #
                #                 D-45470 Muelheim/Ruhr                 #
                #                      Germany                          #
                #                                                       #
                #                  All rights reserved                  #
                #                        -***-                          #
                #########################################################


                         Program Version 6.1.0  -  RELEASE   -
                                (GIT: $679e74b$)
                          ($2025-06-10 18:02:51 +0200$)


 With contributions from (in alphabetic order):
[Max-Planck-Institut fuer Kohlenforschung]                               
  Daniel Aravena         : Magnetic Suceptibility                        
  Michael Atanasov       : Ab Initio Ligand Field Theory (pilot matlab implementation)
  Alexander A. Auer      : GIAO ZORA, VPT2 properties, NMR spectrum      
  Ute Becker             : All parallelization in ORCA, NUMFREQ, NUMCALC 
  Giovanni Bistoni       : ED, misc. LED, open-shell LED, HFLD           
  Dmytro Bykov           : pre 5.0 version of the SCF Hessian            
  Marcos Casanova-Páez   : Triplet and SCS-CIS(D). UHF-(DLPNO)-IP/EA/STEOM-CCSD. UHF-CVS-IP/STEOM-CCSD   
  Vijay G. Chilkuri      : MRCI spin determinant printing, contributions to CSF-ICE 
  Pauline Colinet        : FMM embedding                                 
  Dipayan Datta          : RHF DLPNO-CCSD density                        
  Achintya Kumar Dutta   : EOM-CC, STEOM-CC                              
  Nicolas Foglia         : Exact transition moments, OPA infrastructure, MCD improvements    
  Dmitry Ganyushin       : Spin-Orbit,Spin-Spin,Magnetic field MRCI      
  Miquel Garcia-Rates    : C-PCM and meta-GGA Hessian, CCSD/C-PCM, Gaussian charge scheme 
  Tiago L. C. Gouveia    : GS-ROHF, GS-ROCIS                             
  Yang Guo               : DLPNO-NEVPT2, F12-NEVPT2, CIM, IAO-localization        
  Andreas Hansen         : Spin unrestricted coupled pair/coupled cluster methods 
  Ingolf Harden          : AUTO-CI MPn and infrastructure                
  Benjamin Helmich-Paris : MC-RPA, TRAH-(SCF,CASSCF), AVAS, COSX integrals, SCF dyn. polar., MC-PDFT, srDFT 
  Lee Huntington         : MR-EOM, pCC                                   
  Robert Izsak           : Overlap fitted RIJCOSX, COSX-SCS-MP3, EOM     
  Riya Kayal             : Wick's Theorem for AUTO-CI, AUTO-CI UHF-CCSDT 
  Emily Kempfer          : AUTO-CI RHF CISDT and CCSDT, approximate NEVPT4
  Christian Kollmar      : KDIIS, OOCD, Brueckner-CCSD(T), CCSD density, CASPT2, CASPT2-K, improved NEVPT2 
  Axel Koslowski         : Symmetry handling                             
  Simone Kossmann        : meta-GGA functionals, TD-DFT gradient, OOMP2, (MP2 Hessian; deprecated post 5.0) 
  Lucas Lang             : DCDCAS, Hyperfine gauge corrections, ICE-SOC+SSC
  Marvin Lechner         : AUTO-CI (C++ implementation), FIC-MRCC        
  Spencer Leger          : CASSCF response                               
  Dagmar Lenk            : GEPOL surface, SMD, ORCA-2-JSON               
  Dimitrios Liakos       : Extrapolation schemes; Compound Job, Property file
  Dimitrios Manganas     : Further ROCIS development; embedding schemes. LFT, Crystal Embedding 
  Dimitrios Pantazis     : SARC Basis sets                               
  Anastasios Papadopoulos: AUTO-CI, single reference methods and gradients 
  Taras Petrenko         : pre 6.0 DFT Hessian and TD-DFT gradient,  ECA, NRVS 
  Petra Pikulova         : Analytic Raman intensities                    
  Peter Pinski           : DLPNO-MP2, DLPNO-MP2 Gradient                 
  Shashank Vittal Rao    : ES-AILFT, MagRelax                            
  Christoph Reimann      : Effective Core Potentials                     
  Marius Retegan         : Local ZFS, SOC                                
  Christoph Riplinger    : Optimizer, TS searches, QM/MM, DLPNO-CCSD(T), (RO)-DLPNO pert. Triples 
  Michael Roemelt        : Original ROCIS implementation, recursive CI coupling coefficients
  Masaaki Saitow         : Open-shell DLPNO-CCSD energy and density      
  Barbara Sandhoefer     : DKH picture change effects                    
  Yorick L. A. Schmerwitz: GMF and freeze-and-release deltaSCF, NEB S-IDPP initial path                    
  Kantharuban Sivalingam : CASSCF convergence/infrastructure, NEVPT2, NEVPT3, NEVPT4(SD), FIC-MRCI and CEPA variants
  Bernardo de Souza      : ESD, SOC TD-DFT                               
  Georgi L. Stoychev     : AutoAux, RI-MP2 NMR, DLPNO-MP2 response, X2C  
  Van Anh Tran           : RI-MP2 g-tensors                              
  Willem Van den Heuvel  : Paramagnetic NMR                              
  Zikuan Wang            : NOTCH, Electric field optimization            
  Frank Wennmohs         : Technical directorship and infrastructure     
  Hang Xu                : AUTO-CI-Response properties                   
                                                                         
[FACCTs GmbH]                                                            
  Markus Bursch, Nicolas Foglia, Miquel Garcia-Rates, Ingolf Harden, Hagen Neugebauer, Anastasios Papadopoulos, 
  Christoph Riplinger, Bernardo de Souza, Georgi L. Stoychev                                                    
                                                                 
  APM, various basis sets, CI-OPT, improved COSX, DLPNO-Multilevel,           
  DOCKER, DRACO, updates on ESD, Fragmentator, GOAT, IRC, LR-CPCM, L-BFGS, MBIS, meta-GGA TD-DFT gradient, ML-optimized integration grids, 
  MM, NACMEs, nearIR, NEB, NEB-TS, NL-DFT gradient (VV10), 2- and 3-layer-ONIOM, interface openCOSMO-RS, QMMM,   
  Crystal-QMMM, RESP, rigid body optimization, SF, symmetry and pop. for TD-DFT, various functionals, SOLVATOR                                   
                                                                         
[Other institutions]                                                     
  V. Asgeirsson          : NEB                                           
  Christoph Bannwarth    : sTDA-DFT, sTD-DFT, PBEh-3c, B97-3c, D3        
  Giovanni Bistoni       : ETS/NOCV, ADLD/ADEX, COVALED                  
  Martin Brehm           : Molecular dynamics                            
  Ronald Cardenas        : ETS/NOCV                                      
  Martina Colucci        : COVALED                                       
  Sebastian Ehlert       : rSCAN, r2SCAN, r2SCAN-3c, D4, dhf basis sets  
  Marvin Friede          : D4 for Fr, Ra, Ac-Lr                          
  Lars Goerigk           : TD-DFT with DH, B97 family of functionals     
  Stefan Grimme          : VdW corrections, initial TS optimization, DFT functionals, gCP, sTDA/sTD-DF 
  Waldemar Hujo          : DFT-NL                                        
  H. Jonsson             : NEB                                           
  Holger Kruse           : gCP                                           
  Marcel Mueller         : wB97X-3c, vDZP basis set                      
  Hagen Neugebauer       : wr2SCAN, Native XTB                           
  Gianluca Regni         : ADLD/ADEX                                     
  Tobias Risthaus        : pre 6.0 range-separated hybrid DFT and stability analysis
  Lukas Wittmann         : regularized MP2, r2SCAN double-hybrids, wr2SCAN        
                                                                         
We gratefully acknowledge several colleagues who have allowed us to      
interface, adapt or use parts of their codes:                            
  Ed Valeev, F. Pavosevic, A. Kumar             : LibInt (2-el integral package), F12 methods 
  Garnet Chan, S. Sharma, J. Yang, R. Olivares  : DMRG                   
  Ulf Ekstrom                                   : XCFun DFT Library      
  Mihaly Kallay                                 : mrcc  (arbitrary order and MRCC methods)
  Frank Weinhold                                : gennbo (NPA and NBO analysis)           
  Simon Mueller                                 : openCOSMO-RS                            
  Christopher J. Cramer and Donald G. Truhlar   : smd solvation model                     
  S Lehtola, MJT Oliveira, MAL Marques          : LibXC Library                           
  Liviu Ungur et al                             : ANISO software                          


 Your calculation uses the libint2 library for the computation of 2-el integrals
 For citations please refer to: http://libint.valeyev.net

 Your ORCA version has been built with support for libXC version: 7.0.0
 For citations please refer to: https://libxc.gitlab.io

 This ORCA versions uses:
   CBLAS   interface :  Fast vector & matrix operations
   LAPACKE interface :  Fast linear algebra routines
   SCALAPACK package :  Parallel linear algebra routines
   Shared memory     :  Shared parallel matrices
   BLAS/LAPACK       :  OpenBLAS 0.3.29  USE64BITINT DYNAMIC_ARCH NO_AFFINITY Prescott SINGLE_THREADED
        Core in use  :  Prescott
   Copyright (c) 2011-2014, The OpenBLAS Project


  ***********************************
  * Starting time: Fri Aug  8 17:07:47 2025
  * Host name:     cuda3
  * Process ID:    105286
  * Working dir.:  /local/scratch/mehlhorn/61798
  ***********************************



***************************************
The coordinates will be read from file: start.xyz
***************************************


Your calculation utilizes the geometrical counterpoise correction gCP
Please cite in your paper:
H.Kruse, S. Grimme J.Chem.Phys., 136, (2012), 154101 
   

Your calculation utilizes the atom-pairwise dispersion correction
with the Becke-Johnson damping scheme (D3BJ)


Warning: RI is on but no J-basis has been assigned. Assigning Def2/J (nothing to worry about!)
================================================================================

cite the ECPs for Zr [Def2-ECP] as follows:
Ce-Yb(ecp-28): M. Dolg, H. Stoll, H.Preuss, J. Chem. Phys., 1989, 90, 1730-1734.
Y-Cd(ecp-28), Hf-Hg(ecp-46): D. Andrae,U. Haeussermann, M. Dolg, H. Stoll, H. Preuss, Theor. Chim. Acta, 1990, 77, 123-141.
In-Sb(ecp-28), Tl-Bi(ecp-46): B. Metz, H. Stoll, M. Dolg, J. Chem. Phys., 2000, 113, 2563-2569.
Te-Xe(ecp-28), Po-Rn(ecp-46): K. A. Peterson, D. Figgen, E. Goll, H. Stoll, M. Dolg, J. Chem. Phys., 2003, 119, 11113-11123.
Rb(ecp-28), Cs(ecp-46): T. Leininger, A. Nicklass, W. Kuechle, H. Stoll, M. Dolg, A. Bergner, Chem. Phys. Lett., 1996, 255, 274-280.
Sr(ecp-28), Ba(ecp-46): M. Kaupp, P. V. Schleyer, H. Stoll and H. Preuss, J. Chem. Phys., 1991, 94, 1360-1366.
La(ecp-46): M. Dolg, H. Stoll, A. Savin, H. Preuss, Theor. Chim. Acta, 1989, 75, 173-194.
Lu(ecp-28): X. Cao, M. Dolg, J. Chem. Phys., 2001, 115, 7348-7355.

ECP parameters for Zr [Def2-ECP] have been obtained from:
TURBOMOLE (7.0.2)

----- Orbital basis set information -----
Your calculation utilizes the basis: def2-SV(P)
   F. Weigend and R. Ahlrichs, Phys. Chem. Chem. Phys. 7, 3297 (2005).

----- AuxJ basis set information -----
Your calculation utilizes the auxiliary basis: def2/J
   H-Rn: F. Weigend, Phys. Chem. Chem. Phys. 8, 1057 (2006).
   Fr-Lr: K. Eichkorn, F. Weigend, O. Treutler, R. Ahlrichs; Theor. Chem. Acc. 97, 119 (1997).

================================================================================
                                        WARNINGS
                       Please study these warnings very carefully!
================================================================================


WARNING: Gradients are needed
  ===> : At least TightSCF should be used for SCF convergence

WARNING: Geometry Optimization
  ===> : Switching off AutoStart
         For restart on a previous wavefunction, please use MOREAD

================================================================================
                                       INPUT FILE
================================================================================
NAME = run.inp
|  1> # Geometry optimization for (AlH3)n cluster
|  2> 
|  3> %pal nprocs 24  end
|  4> 
|  5> %geom MaxIter 500 end
|  6> 
|  7> 
|  8> ! PBE def2-SV(P)
|  9> ! RKS	# closed shell for AlH3
| 10> ! D3    #  dispersion correction
| 11> ! gCP(DFT/SV(P))
| 12> ! Freq 	# Frequency analysis to check the stabiltity of the structures
| 13> 
| 14> ! NoPop # population analysis not necessary	
| 15> 
| 16> ! DEFGRID2
| 17> ! NormalSCF
| 18> ! SloppyOpt
| 19> 
| 20> ! SmallPrint
| 21> 
| 22> 
| 23> * xyzFile 0 1 start.xyz # only maingroup elements H and Al so there should be no net spin
| 24> 
| 25>                          ****END OF INPUT****
================================================================================

                       *****************************
                       * Geometry Optimization Run *
                       *****************************

Geometry optimization settings:
Update method            Update   .... BFGS
Choice of coordinates    CoordSys .... (2022) Redundant Internals
Initial Hessian          InHess   .... Almloef's Model
Max. no of cycles        MaxIter  .... 500

Convergence Tolerances:
Energy Change            TolE     ....  8.0000e-05 Eh
Max. Gradient            TolMAXG  ....  5.0000e-03 Eh/bohr
RMS Gradient             TolRMSG  ....  1.0000e-03 Eh/bohr
Max. Displacement        TolMAXD  ....  3.0000e-02 bohr
RMS Displacement         TolRMSD  ....  2.0000e-02 bohr
Strict Convergence                .... False

------------------------------------------------------------------------------
                        ORCA OPTIMIZATION COORDINATE SETUP
------------------------------------------------------------------------------

The optimization will be done in redundant internal coordinates (2022)
Making redundant internal coordinates   ...  (2022 redundants) done
Evaluating the initial hessian          ...  (Almloef) done
Evaluating the coordinates              ...  done
Calculating the B-matrix                .... done
Calculating the G-matrix                .... done
The number of degrees of freedom        ....  807

    -----------------------------------------------------------------
                    Redundant Internal Coordinates


    -----------------------------------------------------------------
         Definition                    Initial Value    Approx d2E/dq
    -----------------------------------------------------------------
      1. B(Zr  2,Zr  1)                  3.4321         0.035314   
      2. B(Zr  3,Zr  0)                  3.4259         0.036128   
      3. B(Zr  4,Zr  3)                  3.3929         0.040790   
      4. B(Zr  4,Zr  1)                  3.3838         0.042175   
      5. B(Zr  5,Zr  2)                  3.4131         0.037871   
      6. B(Zr  5,Zr  0)                  3.3846         0.042053   
      7. B(O   6,Zr  0)                  2.0863         0.438628   
      8. B(O   6,Zr  3)                  2.1091         0.403368   
      9. B(O   6,Zr  5)                  2.1615         0.332746   
     10. B(O   7,Zr  1)                  2.0860         0.439061   
     11. B(O   7,Zr  2)                  2.1034         0.411911   
     12. B(O   7,Zr  4)                  2.1579         0.337181   
     13. B(O   8,Zr  5)                  2.1718         0.320386   
     14. B(O   8,Zr  2)                  2.1402         0.359847   
     15. B(O   8,Zr  1)                  2.1582         0.336859   
     16. B(O   9,Zr  4)                  2.1743         0.317512   
     17. B(O   9,Zr  3)                  2.1368         0.364390   
     18. B(O   9,Zr  0)                  2.1607         0.333740   
     19. B(O  10,Zr  4)                  2.1199         0.387720   
     20. B(O  10,Zr  3)                  2.0724         0.461533   
     21. B(O  10,Zr  1)                  2.1183         0.390016   
     22. B(O  11,Zr  5)                  2.1111         0.400393   
     23. B(O  11,Zr  2)                  2.0769         0.453963   
     24. B(O  11,Zr  0)                  2.1189         0.389061   
     25. B(O  12,Zr  0)                  1.9914         0.621598   
     26. B(O  13,Zr  0)                  1.9936         0.616497   
     27. B(O  14,Zr  0)                  2.0687         0.467871   
     28. B(O  15,Zr  0)                  1.9881         0.629086   
     29. B(O  16,Zr  1)                  1.9870         0.631709   
     30. B(O  17,Zr  1)                  2.0697         0.466168   
     31. B(O  18,Zr  1)                  1.9929         0.618170   
     32. B(O  19,Zr  1)                  1.9935         0.616853   
     33. B(O  20,Zr  2)                  1.9710         0.669858   
     34. B(O  21,Zr  2)                  2.0641         0.475881   
     35. B(O  22,Zr  2)                  1.9878         0.629783   
     36. B(O  23,Zr  2)                  2.0545         0.492987   
     37. B(O  24,Zr  3)                  2.0403         0.519347   
     38. B(O  25,Zr  3)                  1.9902         0.624417   
     39. B(O  26,Zr  3)                  2.0621         0.479388   
     40. B(O  27,Zr  3)                  1.9745         0.661486   
     41. B(O  28,Zr  4)                  1.9780         0.652891   
     42. B(O  29,Zr  4)                  2.0299         0.539663   
     43. B(O  30,Zr  4)                  1.9873         0.631040   
     44. B(O  31,Zr  4)                  2.0692         0.467099   
     45. B(O  32,Zr  5)                  2.0669         0.471107   
     46. B(O  33,Zr  5)                  1.9865         0.632860   
     47. B(O  34,Zr  5)                  2.0311         0.537175   
     48. B(O  35,Zr  5)                  1.9795         0.649369   
     49. B(C  36,O  33)                  1.3014         0.774926   
     50. B(C  36,O  12)                  1.3007         0.776891   
     51. B(C  37,O  13)                  1.3019         0.773561   
     52. B(C  37,O  25)                  1.3018         0.773705   
     53. B(C  38,O  14)                  1.2968         0.787978   
     54. B(C  38,O  21)                  1.2973         0.786687   
     55. B(C  39,O  29)                  1.2953         0.792530   
     56. B(C  39,O  15)                  1.2950         0.793385   
     57. B(C  40,O  34)                  1.2956         0.791686   
     58. B(C  40,O  16)                  1.2957         0.791155   
     59. B(C  41,O  26)                  1.2968         0.788170   
     60. B(C  41,O  17)                  1.2964         0.789242   
     61. B(C  42,O  22)                  1.3014         0.774909   
     62. B(C  42,O  18)                  1.3014         0.774802   
     63. B(C  43,O  19)                  1.3011         0.775620   
     64. B(C  43,O  30)                  1.3020         0.773305   
     65. B(C  44,O  35)                  1.2983         0.783862   
     66. B(C  44,O  20)                  1.2980         0.784505   
     67. B(C  45,O  31)                  1.2986         0.782835   
     68. B(C  45,O  23)                  1.3006         0.777157   
     69. B(C  46,O  32)                  1.2979         0.784880   
     70. B(C  46,O  24)                  1.2999         0.779065   
     71. B(C  47,O  28)                  1.2985         0.783171   
     72. B(C  47,O  27)                  1.2983         0.783780   
     73. B(H  48,C  41)                  1.0846         0.367374   
     74. B(H  49,C  42)                  1.0915         0.358180   
     75. B(H  50,C  38)                  1.0849         0.366885   
     76. B(H  51,C  37)                  1.0917         0.357873   
     77. B(H  52,C  43)                  1.0921         0.357284   
     78. B(H  53,C  47)                  1.0898         0.360314   
     79. B(H  54,C  39)                  1.0860         0.365402   
     80. B(H  55,C  45)                  1.0870         0.364034   
     81. B(H  56,C  40)                  1.0864         0.364889   
     82. B(H  57,C  46)                  1.0868         0.364371   
     83. B(H  58,C  36)                  1.0919         0.357643   
     84. B(H  59,C  44)                  1.0897         0.360432   
     85. B(Al 61,Al 60)                  2.6132         0.343098   
     86. B(H  62,C  41)                  3.0920         0.010000   
     87. B(H  62,H  48)                  2.7019         0.010000   
     88. B(H  62,O  26)                  3.1260         0.010000   
     89. B(H  62,Al 61)                  1.6748         0.294488   
     90. B(H  62,Al 60)                  1.6749         0.294376   
     91. B(H  63,Al 61)                  1.6041         0.381703   
     92. B(H  64,C  46)                  3.1454         0.010000   
     93. B(H  64,O  24)                  2.9795         0.010000   
     94. B(H  64,H  57)                  2.6874         0.010000   
     95. B(H  64,Al 61)                  1.6754         0.293758   
     96. B(H  64,Al 60)                  1.6743         0.294968   
     97. B(H  65,H  48)                  3.1555         0.010000   
     98. B(H  65,O  34)                  3.0900         0.010000   
     99. B(H  65,O  17)                  3.0315         0.010000   
    100. B(H  65,H  56)                  2.8895         0.010000   
    101. B(H  65,C  46)                  2.8768         0.010000   
    102. B(H  65,O  26)                  2.7643         0.010000   
    103. B(H  65,C  41)                  2.7219         0.010000   
    104. B(H  65,C  40)                  2.5967         0.010000   
    105. B(H  65,O  16)                  2.5877         0.010000   
    106. B(H  65,O  24)                  2.4542         0.010000   
    107. B(H  65,Al 60)                  1.6021         0.384545   
    108. B(H  66,Al 60)                  1.6042         0.381620   
    109. B(H  67,O  26)                  2.5982         0.010000   
    110. B(H  67,O  24)                  2.5739         0.010000   
    111. B(H  67,Al 61)                  1.6043         0.381444   
    112. A(Zr  3,Zr  0,O  14)          156.5478         0.340111   
    113. A(Zr  3,Zr  0,O  13)           72.0787         0.356290   
    114. A(O   6,Zr  0,O  13)           93.2924         0.509105   
    115. A(O   6,Zr  0,O  11)           66.1674         0.467539   
    116. A(O   9,Zr  0,O  14)          137.9020         0.460004   
    117. A(O   6,Zr  0,O  15)          142.4621         0.511032   
    118. A(O  13,Zr  0,O  14)          131.3280         0.515287   
    119. A(Zr  3,Zr  0,O   6)           35.4767         0.336470   
    120. A(Zr  3,Zr  0,Zr  5)           70.7677         0.251958   
    121. A(O   9,Zr  0,O  13)           76.4696         0.483907   
    122. A(O   6,Zr  0,O  12)           80.7596         0.509889   
    123. A(O  12,Zr  0,O  14)           80.6138         0.516083   
    124. A(Zr  3,Zr  0,O  15)          110.8627         0.357516   
    125. A(O  14,Zr  0,O  15)           76.7309         0.517242   
    126. A(Zr  5,Zr  0,O  11)           36.7793         0.338267   
    127. A(O   6,Zr  0,O  14)          127.4226         0.483677   
    128. A(Zr  3,Zr  0,O  12)          105.0542         0.356789   
    129. A(O  11,Zr  0,O  13)          158.2155         0.497856   
    130. A(O  11,Zr  0,O  15)          105.8836         0.499731   
    131. A(Zr  5,Zr  0,O   9)           94.2676         0.329762   
    132. A(O  12,Zr  0,O  13)           81.3667         0.543599   
    133. A(O  11,Zr  0,O  14)           70.1010         0.473109   
    134. A(O  11,Zr  0,O  12)          101.3236         0.498620   
    135. A(O   9,Zr  0,O  11)           88.6606         0.444833   
    136. A(O  13,Zr  0,O  15)           85.7422         0.544833   
    137. A(Zr  5,Zr  0,O  15)          142.2330         0.366907   
    138. A(Zr  5,Zr  0,O  14)           89.5879         0.348894   
    139. A(O   9,Zr  0,O  15)           74.8410         0.485718   
    140. A(Zr  5,Zr  0,O  13)          127.4822         0.365638   
    141. A(O  12,Zr  0,O  15)          135.6880         0.545684   
    142. A(Zr  5,Zr  0,O  12)           74.0322         0.366155   
    143. A(O   6,Zr  0,O   9)           68.5159         0.454623   
    144. A(Zr  5,Zr  0,O   6)           37.9528         0.345125   
    145. A(Zr  3,Zr  0,O  11)           86.4477         0.329843   
    146. A(O   9,Zr  0,O  12)          140.5313         0.484644   
    147. A(Zr  3,Zr  0,O   9)           36.8965         0.321626   
    148. A(Zr  2,Zr  1,O  18)           72.1827         0.355079   
    149. A(Zr  4,Zr  1,O  18)          126.5275         0.365990   
    150. A(O   7,Zr  1,O  18)           92.5164         0.509457   
    151. A(Zr  4,Zr  1,O  16)          144.0427         0.367351   
    152. A(O   7,Zr  1,O  10)           65.9531         0.467833   
    153. A(O  10,Zr  1,O  17)           70.0991         0.473005   
    154. A(O   8,Zr  1,O  10)           87.8175         0.445781   
    155. A(Zr  4,Zr  1,O   8)           94.1035         0.330428   
    156. A(O  16,Zr  1,O  17)           77.8593         0.517292   
    157. A(Zr  2,Zr  1,O  16)          110.7911         0.356387   
    158. A(Zr  2,Zr  1,Zr  4)           70.2369         0.251227   
    159. A(Zr  2,Zr  1,O   7)           35.1593         0.335252   
    160. A(O   8,Zr  1,O  16)           74.9819         0.486928   
    161. A(O  16,Zr  1,O  18)           84.8882         0.545542   
    162. A(Zr  2,Zr  1,O  10)           85.3351         0.328738   
    163. A(Zr  4,Zr  1,O   7)           37.8660         0.345350   
    164. A(Zr  4,Zr  1,O  17)           89.2042         0.348850   
    165. A(O   7,Zr  1,O  16)          142.8777         0.511524   
    166. A(Zr  2,Zr  1,O  19)          105.6178         0.354950   
    167. A(O  17,Zr  1,O  19)           80.1376         0.514991   
    168. A(O   8,Zr  1,O  18)           76.6597         0.484982   
    169. A(O  10,Zr  1,O  18)          157.1719         0.498334   
    170. A(Zr  4,Zr  1,O  19)           73.7303         0.365856   
    171. A(O  10,Zr  1,O  16)          107.3924         0.500346   
    172. A(Zr  2,Zr  1,O  17)          155.4342         0.338614   
    173. A(Zr  2,Zr  1,O   8)           36.8357         0.320918   
    174. A(O   8,Zr  1,O  17)          137.6546         0.460479   
    175. A(Zr  4,Zr  1,O  10)           37.0383         0.338569   
    176. A(O   7,Zr  1,O  19)           80.9097         0.509254   
    177. A(O  17,Zr  1,O  18)          132.3086         0.515197   
    178. A(O  18,Zr  1,O  19)           81.4626         0.543090   
    179. A(O   7,Zr  1,O  17)          126.9688         0.483439   
    180. A(O  10,Zr  1,O  19)          101.4177         0.498137   
    181. A(O   8,Zr  1,O  19)          141.0501         0.484791   
    182. A(O  16,Zr  1,O  19)          134.7228         0.545322   
    183. A(O   7,Zr  1,O   8)           68.4292         0.455476   
    184. A(Zr  1,Zr  2,O  20)          110.6435         0.359959   
    185. A(O   7,Zr  2,O   8)           68.4581         0.455657   
    186. A(Zr  1,Zr  2,O  23)          104.0987         0.341794   
    187. A(O  11,Zr  2,O  21)           70.9318         0.488290   
    188. A(Zr  5,Zr  2,O   8)           37.9969         0.328163   
    189. A(O   8,Zr  2,O  23)          140.0288         0.470875   
    190. A(O  11,Zr  2,O  23)          110.7409         0.491494   
    191. A(O   8,Zr  2,O  21)          131.7005         0.467835   
    192. A(Zr  1,Zr  2,O  21)          155.6936         0.339782   
    193. A(O  21,Zr  2,O  23)           77.8154         0.495813   
    194. A(O   8,Zr  2,O  22)           89.6598         0.492639   
    195. A(O  11,Zr  2,O  22)          156.5434         0.514433   
    196. A(Zr  1,Zr  2,O   7)           34.8266         0.331720   
    197. A(O   7,Zr  2,O  23)           71.5747         0.482735   
    198. A(O  20,Zr  2,O  23)          135.8385         0.528544   
    199. A(Zr  1,Zr  2,O   8)           37.1969         0.324409   
    200. A(O  11,Zr  2,O  20)           98.2224         0.520415   
    201. A(O  21,Zr  2,O  22)          131.9791         0.518998   
    202. A(Zr  5,Zr  2,O  11)           35.7514         0.341076   
    203. A(O   7,Zr  2,O  22)           80.0024         0.505175   
    204. A(O  20,Zr  2,O  22)           82.9051         0.553595   
    205. A(Zr  5,Zr  2,O   7)           90.4645         0.335590   
    206. A(O  22,Zr  2,O  23)           82.9238         0.522449   
    207. A(O   7,Zr  2,O  11)           86.2941         0.475454   
    208. A(Zr  1,Zr  2,Zr  5)           70.2897         0.247321   
    209. A(Zr  5,Zr  2,O  23)          144.5239         0.345825   
    210. A(Zr  5,Zr  2,O  21)           93.8670         0.343781   
    211. A(Zr  1,Zr  2,O  11)           86.1024         0.337120   
    212. A(O   8,Zr  2,O  11)           67.5180         0.463813   
    213. A(O   8,Zr  2,O  20)           81.3348         0.498315   
    214. A(O   7,Zr  2,O  20)          145.1309         0.511027   
    215. A(Zr  5,Zr  2,O  20)           74.8508         0.364280   
    216. A(Zr  1,Zr  2,O  22)           71.7786         0.356202   
    217. A(Zr  5,Zr  2,O  22)          124.8393         0.360463   
    218. A(O   7,Zr  2,O  21)          131.9694         0.479601   
    219. A(O  20,Zr  2,O  21)           81.2925         0.525044   
    220. A(Zr  0,Zr  3,O  25)           71.5877         0.357063   
    221. A(O   6,Zr  3,O  10)           84.5024         0.475068   
    222. A(O   6,Zr  3,O  27)          144.3428         0.507836   
    223. A(O   9,Zr  3,O  10)           67.7153         0.466289   
    224. A(Zr  0,Zr  3,O  27)          109.6492         0.360585   
    225. A(O   6,Zr  3,O  24)           71.9380         0.485519   
    226. A(O  10,Zr  3,O  27)          100.7305         0.520803   
    227. A(Zr  4,Zr  3,O   6)           90.7110         0.338583   
    228. A(Zr  4,Zr  3,O  26)           92.0140         0.348530   
    229. A(Zr  4,Zr  3,O   9)           38.4846         0.332908   
    230. A(O   6,Zr  3,O  25)           79.9340         0.502405   
    231. A(O   6,Zr  3,O  26)          132.9235         0.478399   
    232. A(Zr  0,Zr  3,Zr  4)           71.0289         0.250837   
    233. A(O   9,Zr  3,O  26)          130.2504         0.469544   
    234. A(O   6,Zr  3,O   9)           68.5584         0.454960   
    235. A(O  25,Zr  3,O  27)           82.5117         0.551378   
    236. A(O   9,Zr  3,O  25)           90.2243         0.493004   
    237. A(Zr  4,Zr  3,O  10)           36.4454         0.346310   
    238. A(O   9,Zr  3,O  24)          140.4963         0.476503   
    239. A(Zr  4,Zr  3,O  24)          143.8320         0.353275   
    240. A(Zr  0,Zr  3,O  10)           85.6326         0.339337   
    241. A(O   9,Zr  3,O  27)           80.7789         0.498312   
    242. A(O  25,Zr  3,O  26)          132.2420         0.518880   
    243. A(O  24,Zr  3,O  26)           78.7349         0.501322   
    244. A(Zr  0,Zr  3,O   6)           35.0363         0.331820   
    245. A(Zr  4,Zr  3,O  27)           75.0322         0.368149   
    246. A(O  24,Zr  3,O  25)           82.9861         0.526741   
    247. A(O  24,Zr  3,O  27)          136.0050         0.532492   
    248. A(Zr  0,Zr  3,O   9)           37.3795         0.326299   
    249. A(O  10,Zr  3,O  25)          156.5835         0.515203   
    250. A(Zr  0,Zr  3,O  24)          104.6171         0.346114   
    251. A(O  10,Zr  3,O  26)           70.9179         0.490454   
    252. A(Zr  4,Zr  3,O  25)          125.9736         0.364529   
    253. A(O  26,Zr  3,O  27)           80.9687         0.524528   
    254. A(Zr  0,Zr  3,O  26)          155.9056         0.341497   
    255. A(O  10,Zr  3,O  24)          108.6988         0.497795   
    256. A(O   9,Zr  4,O  10)           66.2068         0.440566   
    257. A(O   7,Zr  4,O  10)           64.6786         0.445382   
    258. A(Zr  3,Zr  4,O  10)           35.5042         0.336358   
    259. A(O  29,Zr  4,O  31)           73.8195         0.502481   
    260. A(O  10,Zr  4,O  30)           86.1961         0.499698   
    261. A(Zr  1,Zr  4,O  31)           95.1458         0.348967   
    262. A(Zr  1,Zr  4,O  30)           70.5122         0.367284   
    263. A(O  28,Zr  4,O  29)           82.8224         0.535038   
    264. A(O  10,Zr  4,O  29)          136.7534         0.485412   
    265. A(O   9,Zr  4,O  29)           71.9497         0.467888   
    266. A(Zr  1,Zr  4,Zr  3)           72.3278         0.256607   
    267. A(O  30,Zr  4,O  31)           82.3309         0.517382   
    268. A(O   9,Zr  4,O  31)          134.2139         0.455704   
    269. A(O  28,Zr  4,O  30)           81.9147         0.551113   
    270. A(O  29,Zr  4,O  30)          136.2648         0.531615   
    271. A(Zr  3,Zr  4,O  31)          160.5482         0.347009   
    272. A(O   9,Zr  4,O  30)          143.0986         0.481542   
    273. A(O   7,Zr  4,O  30)           91.7507         0.486919   
    274. A(Zr  3,Zr  4,O  30)          106.3624         0.365188   
    275. A(O   7,Zr  4,O  31)           68.6153         0.460727   
    276. A(O   7,Zr  4,O  29)          111.9519         0.473077   
    277. A(O   9,Zr  4,O  28)           79.1087         0.484578   
    278. A(O  28,Zr  4,O  31)          125.3259         0.520696   
    279. A(Zr  3,Zr  4,O  29)          108.1798         0.355581   
    280. A(Zr  1,Zr  4,O  28)          127.1947         0.369437   
    281. A(Zr  3,Zr  4,O   9)           37.7035         0.325423   
    282. A(Zr  3,Zr  4,O   7)           93.3785         0.328661   
    283. A(O   7,Zr  4,O  28)          163.2013         0.489996   
    284. A(O  10,Zr  4,O  31)          131.3618         0.472665   
    285. A(Zr  1,Zr  4,O   7)           36.3968         0.330480   
    286. A(O   7,Zr  4,O   9)           97.4294         0.429627   
    287. A(Zr  1,Zr  4,O   9)           96.7598         0.327217   
    288. A(Zr  1,Zr  4,O  29)          146.3071         0.357604   
    289. A(Zr  3,Zr  4,O  28)           73.7384         0.367324   
    290. A(Zr  1,Zr  4,O  10)           37.0055         0.338235   
    291. A(O  10,Zr  4,O  28)           99.2352         0.502875   
    292. A(O  11,Zr  5,O  35)           96.7079         0.505389   
    293. A(O  34,Zr  5,O  35)           82.2544         0.534027   
    294. A(O  33,Zr  5,O  35)           81.7090         0.550849   
    295. A(O  32,Zr  5,O  35)          127.0806         0.521002   
    296. A(O   8,Zr  5,O  35)           79.4990         0.484901   
    297. A(O   6,Zr  5,O  35)          160.6993         0.488308   
    298. A(Zr  2,Zr  5,O  35)           73.2805         0.362351   
    299. A(O  33,Zr  5,O  34)          133.9756         0.531441   
    300. A(O  32,Zr  5,O  34)           74.2236         0.502848   
    301. A(O  11,Zr  5,O  34)          137.5831         0.487891   
    302. A(Zr  0,Zr  5,O  35)          124.5774         0.368910   
    303. A(O   6,Zr  5,O  34)          115.0914         0.471528   
    304. A(Zr  2,Zr  5,O  34)          107.3766         0.350864   
    305. A(Zr  0,Zr  5,O  34)          149.1988         0.357147   
    306. A(O   8,Zr  5,O  33)          145.0638         0.482600   
    307. A(Zr  2,Zr  5,O   6)           92.5525         0.323962   
    308. A(Zr  0,Zr  5,O  33)           70.8014         0.367283   
    309. A(O   6,Zr  5,O  32)           68.7379         0.460332   
    310. A(Zr  0,Zr  5,Zr  2)           71.6802         0.253705   
    311. A(Zr  0,Zr  5,O   6)           36.4139         0.329600   
    312. A(Zr  0,Zr  5,O  32)           96.0647         0.349299   
    313. A(O   8,Zr  5,O  32)          132.6398         0.457164   
    314. A(Zr  2,Zr  5,O  32)          159.0244         0.343200   
    315. A(O  11,Zr  5,O  32)          132.1231         0.476217   
    316. A(O   8,Zr  5,O  34)           71.8534         0.468264   
    317. A(O   6,Zr  5,O  33)           90.8589         0.485987   
    318. A(Zr  2,Zr  5,O  33)          108.6940         0.360762   
    319. A(O  32,Zr  5,O  33)           81.9193         0.518492   
    320. A(O   8,Zr  5,O  11)           66.3466         0.443858   
    321. A(O   6,Zr  5,O  11)           64.9865         0.446911   
    322. A(Zr  2,Zr  5,O  11)           35.0863         0.334013   
    323. A(Zr  0,Zr  5,O  11)           36.9381         0.339892   
    324. A(O   6,Zr  5,O   8)           97.3295         0.429301   
    325. A(Zr  2,Zr  5,O   8)           37.3482         0.321957   
    326. A(Zr  0,Zr  5,O   8)           96.4884         0.327547   
    327. A(O  11,Zr  5,O  33)           87.0798         0.502969   
    328. A(Zr  3,O   6,Zr  5)          134.8714         0.447512   
    329. A(Zr  0,O   6,Zr  5)          105.6333         0.454377   
    330. A(Zr  0,O   6,Zr  3)          109.4870         0.470645   
    331. A(Zr  2,O   7,Zr  4)          133.8995         0.450297   
    332. A(Zr  1,O   7,Zr  4)          105.7372         0.455555   
    333. A(Zr  1,O   7,Zr  2)          110.0142         0.472546   
    334. A(Zr  1,O   8,Zr  2)          105.9675         0.439339   
    335. A(Zr  2,O   8,Zr  5)          104.6549         0.435385   
    336. A(Zr  1,O   8,Zr  5)          131.0202         0.430248   
    337. A(Zr  3,O   9,Zr  4)          103.8119         0.435663   
    338. A(Zr  0,O   9,Zr  4)          132.0642         0.428837   
    339. A(Zr  0,O   9,Zr  3)          105.7239         0.439596   
    340. A(Zr  3,O  10,Zr  4)          108.0504         0.471626   
    341. A(Zr  1,O  10,Zr  4)          105.9561         0.457319   
    342. A(Zr  1,O  10,Zr  3)          145.1906         0.472138   
    343. A(Zr  2,O  11,Zr  5)          109.1622         0.472981   
    344. A(Zr  0,O  11,Zr  5)          106.2826         0.459804   
    345. A(Zr  0,O  11,Zr  2)          143.1008         0.470494   
    346. A(Zr  0,O  12,C  36)          125.5486         0.502767   
    347. A(Zr  0,O  13,C  37)          126.8576         0.501595   
    348. A(Zr  0,O  14,C  38)          135.2677         0.478244   
    349. A(Zr  0,O  15,C  39)          138.6453         0.505867   
    350. A(Zr  1,O  16,C  40)          137.9467         0.505995   
    351. A(C  40,O  16,H  65)           75.9143         0.165751   
    352. A(Zr  1,O  16,H  65)          113.5512         0.173443   
    353. A(Zr  1,O  17,C  41)          137.4608         0.478064   
    354. A(C  41,O  17,H  65)           63.8641         0.142035   
    355. A(Zr  1,O  17,H  65)           95.8507         0.143502   
    356. A(Zr  1,O  18,C  42)          127.3988         0.501998   
    357. A(Zr  1,O  19,C  43)          125.1266         0.501897   
    358. A(Zr  2,O  20,C  44)          131.2258         0.510759   
    359. A(Zr  2,O  21,C  38)          139.4646         0.479598   
    360. A(Zr  2,O  22,C  42)          128.6492         0.503754   
    361. A(Zr  2,O  23,C  45)          136.9113         0.481648   
    362. A(H  64,O  24,H  65)           52.6503         0.101537   
    363. A(C  46,O  24,H  64)           85.0086         0.144217   
    364. A(Zr  3,O  24,H  64)          137.8626         0.147320   
    365. A(H  64,O  24,H  67)           54.0029         0.100350   
    366. A(H  65,O  24,H  67)           83.6386         0.106566   
    367. A(C  46,O  24,H  67)          128.8240         0.166362   
    368. A(Zr  3,O  24,H  67)           89.1104         0.170709   
    369. A(C  46,O  24,H  65)           95.0614         0.174460   
    370. A(Zr  3,O  24,H  65)          110.2177         0.179262   
    371. A(Zr  3,O  24,C  46)          137.1198         0.486525   
    372. A(Zr  3,O  25,C  37)          128.0703         0.502806   
    373. A(Zr  3,O  26,C  41)          139.0764         0.480414   
    374. A(H  62,O  26,H  65)           49.2138         0.097577   
    375. A(C  41,O  26,H  62)           76.4997         0.138015   
    376. A(Zr  3,O  26,H  62)          129.7026         0.139706   
    377. A(H  62,O  26,H  67)           51.9254         0.098848   
    378. A(H  65,O  26,H  67)           77.3599         0.102303   
    379. A(C  41,O  26,H  65)           74.5125         0.155212   
    380. A(Zr  3,O  26,H  65)           98.8477         0.157496   
    381. A(C  41,O  26,H  67)          127.7340         0.165018   
    382. A(Zr  3,O  26,H  67)           87.9794         0.167641   
    383. A(Zr  3,O  27,C  47)          130.9921         0.509472   
    384. A(Zr  4,O  28,C  47)          132.7029         0.508156   
    385. A(Zr  4,O  29,C  39)          139.3939         0.491551   
    386. A(Zr  4,O  30,C  43)          128.4288         0.503747   
    387. A(Zr  4,O  31,C  45)          128.4647         0.477523   
    388. A(Zr  5,O  32,C  46)          130.3021         0.478505   
    389. A(Zr  5,O  33,C  36)          129.2842         0.504214   
    390. A(Zr  5,O  34,C  40)          138.5953         0.491033   
    391. A(C  40,O  34,H  65)           55.9447         0.139554   
    392. A(Zr  5,O  34,H  65)          111.8897         0.142609   
    393. A(Zr  5,O  35,C  44)          133.1204         0.507726   
    394. A(O  12,C  36,O  33)          126.8016         0.464685   
    395. A(O  33,C  36,H  58)          116.6143         0.363864   
    396. A(O  12,C  36,H  58)          116.5820         0.364021   
    397. A(O  13,C  37,O  25)          127.2882         0.464186   
    398. A(O  25,C  37,H  51)          116.3464         0.363806   
    399. A(O  13,C  37,H  51)          116.3654         0.363794   
    400. A(O  14,C  38,O  21)          130.0922         0.467179   
    401. A(O  21,C  38,H  50)          114.8925         0.366400   
    402. A(O  14,C  38,H  50)          115.0072         0.366503   
    403. A(O  15,C  39,O  29)          128.9917         0.468400   
    404. A(O  29,C  39,H  54)          115.4918         0.366610   
    405. A(O  15,C  39,H  54)          115.5099         0.366678   
    406. A(O  16,C  40,O  34)          128.9758         0.468067   
    407. A(H  56,C  40,H  65)           94.3287         0.146838   
    408. A(O  34,C  40,H  65)           99.6396         0.168032   
    409. A(O  16,C  40,H  65)           75.1396         0.168020   
    410. A(O  34,C  40,H  56)          115.4808         0.366455   
    411. A(O  16,C  40,H  56)          115.5206         0.366413   
    412. A(O  17,C  41,O  26)          130.0316         0.467478   
    413. A(H  62,C  41,H  65)           49.8841         0.098835   
    414. A(H  48,C  41,H  62)           59.1756         0.127373   
    415. A(O  17,C  41,H  62)          128.3418         0.141317   
    416. A(O  26,C  41,H  62)           79.4335         0.141301   
    417. A(H  48,C  41,H  65)          103.4406         0.141203   
    418. A(O  26,C  41,H  65)           78.1565         0.160151   
    419. A(O  17,C  41,H  65)           90.8210         0.160173   
    420. A(O  26,C  41,H  48)          114.9823         0.366602   
    421. A(O  17,C  41,H  48)          114.9849         0.366687   
    422. A(O  18,C  42,O  22)          127.3846         0.464455   
    423. A(O  22,C  42,H  49)          116.2953         0.363956   
    424. A(O  18,C  42,H  49)          116.3201         0.363947   
    425. A(O  30,C  43,H  52)          116.6908         0.363671   
    426. A(O  19,C  43,H  52)          116.6247         0.363857   
    427. A(O  19,C  43,O  30)          126.6819         0.464368   
    428. A(O  35,C  44,H  59)          116.2185         0.365063   
    429. A(O  20,C  44,H  59)          116.2723         0.365114   
    430. A(O  20,C  44,O  35)          127.5092         0.466494   
    431. A(O  31,C  45,H  55)          115.0908         0.365603   
    432. A(O  23,C  45,H  55)          115.1987         0.365148   
    433. A(O  23,C  45,O  31)          129.7077         0.465579   
    434. A(H  64,C  46,H  65)           47.8645         0.097271   
    435. A(O  32,C  46,H  64)          143.8205         0.138985   
    436. A(H  57,C  46,H  64)           55.7012         0.125640   
    437. A(H  57,C  46,H  65)           99.9275         0.134808   
    438. A(O  32,C  46,H  65)          111.9937         0.151492   
    439. A(O  24,C  46,H  65)           58.1881         0.151387   
    440. A(O  24,C  46,H  64)           70.6787         0.138900   
    441. A(O  32,C  46,H  57)          115.0985         0.365824   
    442. A(O  24,C  46,H  57)          115.2729         0.365359   
    443. A(O  24,C  46,O  32)          129.6264         0.466011   
    444. A(O  28,C  47,H  53)          116.2157         0.364988   
    445. A(O  27,C  47,H  53)          116.2651         0.365036   
    446. A(O  27,C  47,O  28)          127.5192         0.466340   
    447. A(H  62,H  48,H  65)           49.2363         0.091870   
    448. A(C  41,H  48,H  65)           57.0299         0.109021   
    449. A(C  41,H  48,H  62)          100.6607         0.118193   
    450. A(C  40,H  56,H  65)           63.6524         0.113939   
    451. A(C  46,H  57,H  64)          104.7818         0.118493   
    452. A(H  65,Al 60,H  66)          157.2656         0.378549   
    453. A(H  64,Al 60,H  66)           99.4864         0.361680   
    454. A(H  62,Al 60,H  66)          100.6853         0.361556   
    455. A(Al 61,Al 60,H  66)          102.1719         0.433195   
    456. A(H  64,Al 60,H  65)           97.0457         0.362152   
    457. A(H  62,Al 60,H  65)           98.0518         0.362028   
    458. A(Al 61,Al 60,H  65)          100.4943         0.433790   
    459. A(H  62,Al 60,H  64)           77.4559         0.346122   
    460. A(Al 61,Al 60,H  64)           38.7447         0.413703   
    461. A(Al 61,Al 60,H  62)           38.7252         0.413556   
    462. A(H  64,Al 61,H  67)          101.8817         0.361398   
    463. A(H  63,Al 61,H  67)          152.7603         0.378033   
    464. A(H  62,Al 61,H  67)          102.0992         0.361552   
    465. A(Al 60,Al 61,H  67)          106.2407         0.433159   
    466. A(H  63,Al 61,H  64)           98.4730         0.361440   
    467. A(H  62,Al 61,H  64)           77.4281         0.345905   
    468. A(Al 60,Al 61,H  64)           38.7140         0.413401   
    469. A(H  62,Al 61,H  63)           99.8435         0.361593   
    470. A(Al 60,Al 61,H  63)          100.9694         0.433212   
    471. A(Al 60,Al 61,H  62)           38.7280         0.413584   
    472. A(O  26,H  62,C  41)           24.0668         0.095775   
    473. A(O  26,H  62,H  48)           39.5439         0.094154   
    474. A(O  26,H  62,Al 61)           91.2118         0.129400   
    475. A(O  26,H  62,Al 60)           97.5307         0.129396   
    476. A(C  41,H  62,H  48)           20.1637         0.094500   
    477. A(C  41,H  62,Al 61)          115.0988         0.132108   
    478. A(C  41,H  62,Al 60)           94.4161         0.132105   
    479. A(H  48,H  62,Al 61)          123.7346         0.121796   
    480. A(H  48,H  62,Al 60)          108.0429         0.121793   
    481. A(Al 60,H  62,Al 61)          102.5468         0.346027   
    482. A(O  24,H  64,C  46)           24.3127         0.096321   
    483. A(C  46,H  64,H  57)           19.5169         0.094325   
    484. A(C  46,H  64,Al 61)          113.9915         0.130215   
    485. A(C  46,H  64,Al 60)           98.3658         0.130254   
    486. A(O  24,H  64,H  57)           41.3466         0.094893   
    487. A(O  24,H  64,Al 61)           92.4965         0.134606   
    488. A(O  24,H  64,Al 60)           92.8159         0.134649   
    489. A(H  57,H  64,Al 61)          119.9262         0.122176   
    490. A(H  57,H  64,Al 60)          112.9605         0.122207   
    491. A(Al 60,H  64,Al 61)          102.5413         0.346000   
    492. A(O  34,H  65,H  48)          131.7795         0.092642   
    493. A(O  17,H  65,H  48)           37.8710         0.092824   
    494. A(H  48,H  65,H  56)          125.0549         0.091455   
    495. A(C  46,H  65,H  48)          124.4873         0.093511   
    496. A(O  26,H  65,H  48)           39.0263         0.093775   
    497. A(C  41,H  65,H  48)           19.5295         0.094132   
    498. A(C  40,H  65,H  48)          118.5081         0.094694   
    499. A(O  16,H  65,H  48)           89.5724         0.094531   
    500. A(O  24,H  65,H  48)           97.7402         0.095180   
    501. A(H  48,H  65,Al 60)           92.1809         0.112892   
    502. A(O  17,H  65,O  34)           94.2473         0.096077   
    503. A(O  34,H  65,H  56)           39.2545         0.093544   
    504. A(O  34,H  65,C  46)           62.5084         0.097349   
    505. A(O  26,H  65,O  34)          111.7050         0.097838   
    506. A(O  34,H  65,C  41)          114.2747         0.098497   
    507. A(O  34,H  65,C  40)           24.4157         0.099538   
    508. A(O  16,H  65,O  34)           47.6405         0.099236   
    509. A(O  24,H  65,O  34)           79.3242         0.100437   
    510. A(O  34,H  65,Al 60)          132.3449         0.133218   
    511. A(O  17,H  65,H  56)           94.2122         0.093770   
    512. A(O  17,H  65,C  46)          117.2977         0.097765   
    513. A(O  17,H  65,O  26)           47.5757         0.098278   
    514. A(O  17,H  65,C  41)           25.3149         0.098970   
    515. A(O  17,H  65,C  40)           81.8585         0.100063   
    516. A(O  16,H  65,O  17)           53.2640         0.099746   
    517. A(O  17,H  65,O  24)           97.1928         0.101007   
    518. A(O  17,H  65,Al 60)          124.3317         0.135421   
    519. A(C  46,H  65,H  56)           97.3546         0.094628   
    520. A(O  26,H  65,H  56)          135.8407         0.094957   
    521. A(C  41,H  65,H  56)          119.4838         0.095402   
    522. A(C  40,H  65,H  56)           22.0189         0.096104   
    523. A(O  16,H  65,H  56)           42.7959         0.095900   
    524. A(O  24,H  65,H  56)          118.1852         0.096709   
    525. A(H  56,H  65,Al 60)          104.6477         0.118807   
    526. A(O  26,H  65,C  46)           85.9559         0.099946   
    527. A(C  41,H  65,C  46)          111.4739         0.100763   
    528. A(C  40,H  65,C  46)           86.9137         0.102053   
    529. A(O  16,H  65,C  46)          103.8476         0.101678   
    530. A(O  24,H  65,C  46)           26.7505         0.103165   
    531. A(C  46,H  65,Al 60)          111.5534         0.143767   
    532. A(O  26,H  65,C  41)           27.3309         0.101451   
    533. A(O  26,H  65,C  40)          115.9478         0.102816   
    534. A(O  16,H  65,O  26)           93.5166         0.102420   
    535. A(O  24,H  65,O  26)           59.4676         0.103995   
    536. A(O  26,H  65,Al 60)          114.9846         0.146972   
    537. A(C  40,H  65,C  41)          106.2997         0.103847   
    538. A(O  16,H  65,C  41)           78.2654         0.103421   
    539. A(O  24,H  65,C  41)           85.8487         0.105113   
    540. A(C  41,H  65,Al 60)          111.4411         0.151297   
    541. A(O  16,H  65,C  40)           28.9461         0.105002   
    542. A(O  24,H  65,C  40)          101.6870         0.106880   
    543. A(C  40,H  65,Al 60)          126.6306         0.158127   
    544. A(O  16,H  65,O  24)          106.9354         0.106366   
    545. A(O  16,H  65,Al 60)          135.2295         0.156142   
    546. A(O  24,H  65,Al 60)          117.0888         0.164022   
    547. A(O  24,H  67,O  26)           60.4109         0.104584   
    548. A(O  26,H  67,Al 61)          114.6243         0.155436   
    549. A(O  24,H  67,Al 61)          110.7082         0.156789   
    550. D(O   7,Zr  2,Zr  1,Zr  4)    -18.8045         0.010000   
    551. D(Zr  5,Zr  2,Zr  1,O   7)    122.0074         0.010000   
    552. D(Zr  5,Zr  2,Zr  1,Zr  4)    103.2029         0.010000   
    553. D(Zr  4,Zr  3,Zr  0,Zr  5)   -102.5745         0.010000   
    554. D(Zr  4,Zr  3,Zr  0,O   6)   -120.8732         0.010000   
    555. D(O   6,Zr  3,Zr  0,Zr  5)     18.2987         0.010000   
    556. D(O   7,Zr  4,Zr  1,Zr  2)     17.6020         0.010000   
    557. D(Zr  3,Zr  4,Zr  1,Zr  2)   -104.8392         0.010000   
    558. D(Zr  1,Zr  4,Zr  3,O   6)     74.9824         0.010000   
    559. D(Zr  1,Zr  4,Zr  3,Zr  0)    104.5062         0.010000   
    560. D(Zr  3,Zr  4,Zr  1,O   7)   -122.4412         0.010000   
    561. D(O   7,Zr  4,Zr  3,Zr  0)     74.3973         0.010000   
    562. D(O   6,Zr  5,Zr  0,Zr  3)    -17.2347         0.010000   
    563. D(Zr  2,Zr  5,Zr  0,O   6)    121.8632         0.010000   
    564. D(Zr  2,Zr  5,Zr  0,Zr  3)    104.6285         0.010000   
    565. D(Zr  0,Zr  5,Zr  2,O   7)    -76.4182         0.010000   
    566. D(O   6,Zr  5,Zr  2,Zr  1)    -75.0753         0.010000   
    567. D(Zr  0,Zr  5,Zr  2,Zr  1)   -105.3843         0.010000   
    568. D(Zr  0,O   6,Zr  3,O   9)     22.0373         0.010000   
    569. D(Zr  3,O   6,Zr  5,Zr  0)    140.1190         0.010000   
    570. D(Zr  3,O   6,Zr  0,O   9)    -21.7875         0.010000   
    571. D(Zr  0,O   6,Zr  5,O   8)    -91.0060         0.010000   
    572. D(Zr  0,O   6,Zr  5,Zr  2)    -53.8102         0.010000   
    573. D(Zr  5,O   6,Zr  3,Zr  0)   -139.0807         0.010000   
    574. D(Zr  3,O   6,Zr  0,Zr  5)   -151.1825         0.010000   
    575. D(Zr  5,O   6,Zr  0,Zr  3)    151.1825         0.010000   
    576. D(Zr  0,O   6,Zr  3,Zr  4)     54.2669         0.010000   
    577. D(Zr  1,O   7,Zr  2,Zr  5)    -52.9702         0.010000   
    578. D(Zr  4,O   7,Zr  1,Zr  2)   -150.3824         0.010000   
    579. D(Zr  2,O   7,Zr  1,O   8)     21.0502         0.010000   
    580. D(Zr  2,O   7,Zr  1,Zr  4)    150.3824         0.010000   
    581. D(Zr  1,O   7,Zr  2,O   8)    -21.2310         0.010000   
    582. D(Zr  2,O   7,Zr  4,Zr  1)   -139.8755         0.010000   
    583. D(Zr  1,O   7,Zr  4,O   9)     91.3271         0.010000   
    584. D(Zr  4,O   7,Zr  2,Zr  1)    138.6878         0.010000   
    585. D(Zr  1,O   7,Zr  4,Zr  3)     53.6601         0.010000   
    586. D(Zr  1,O   8,Zr  5,Zr  2)   -127.1825         0.010000   
    587. D(Zr  5,O   8,Zr  2,Zr  1)   -141.3012         0.010000   
    588. D(Zr  1,O   8,Zr  2,O   7)     20.0040         0.010000   
    589. D(Zr  1,O   8,Zr  2,Zr  5)    141.3012         0.010000   
    590. D(Zr  1,O   8,Zr  5,Zr  0)    -79.2875         0.010000   
    591. D(Zr  2,O   8,Zr  5,Zr  0)     47.8950         0.010000   
    592. D(Zr  5,O   8,Zr  1,Zr  2)    126.7047         0.010000   
    593. D(Zr  2,O   8,Zr  1,O   7)    -20.1820         0.010000   
    594. D(Zr  2,O   8,Zr  1,Zr  4)    -48.6064         0.010000   
    595. D(Zr  0,O   9,Zr  4,Zr  1)     77.4928         0.010000   
    596. D(Zr  0,O   9,Zr  4,Zr  3)    126.7100         0.010000   
    597. D(Zr  3,O   9,Zr  4,Zr  1)    -49.2172         0.010000   
    598. D(Zr  4,O   9,Zr  3,Zr  0)    141.8083         0.010000   
    599. D(Zr  4,O   9,Zr  0,Zr  3)   -126.0255         0.010000   
    600. D(Zr  0,O   9,Zr  3,Zr  4)   -141.8083         0.010000   
    601. D(Zr  3,O   9,Zr  0,O   6)     21.0266         0.010000   
    602. D(Zr  3,O   9,Zr  0,Zr  5)     49.4899         0.010000   
    603. D(Zr  0,O   9,Zr  3,O   6)    -20.7822         0.010000   
    604. D(Zr  3,O  10,Zr  1,Zr  2)   -104.4348         0.010000   
    605. D(Zr  3,O  10,Zr  1,Zr  4)   -167.3642         0.010000   
    606. D(Zr  4,O  10,Zr  1,Zr  2)     62.9294         0.010000   
    607. D(Zr  1,O  10,Zr  3,Zr  4)    167.2197         0.010000   
    608. D(Zr  4,O  10,Zr  3,Zr  0)    -63.5502         0.010000   
    609. D(Zr  1,O  10,Zr  3,Zr  0)    103.6695         0.010000   
    610. D(Zr  1,O  10,Zr  4,O   7)    -31.6031         0.010000   
    611. D(Zr  3,O  10,Zr  4,Zr  1)    172.4530         0.010000   
    612. D(Zr  1,O  10,Zr  4,Zr  3)   -172.4530         0.010000   
    613. D(Zr  2,O  11,Zr  5,Zr  0)   -169.5700         0.010000   
    614. D(Zr  0,O  11,Zr  5,Zr  2)    169.5700         0.010000   
    615. D(Zr  5,O  11,Zr  2,Zr  1)     61.0568         0.010000   
    616. D(Zr  0,O  11,Zr  2,Zr  5)   -163.1765         0.010000   
    617. D(Zr  0,O  11,Zr  2,Zr  1)   -102.1197         0.010000   
    618. D(Zr  5,O  11,Zr  0,Zr  3)    -62.0844         0.010000   
    619. D(Zr  0,O  11,Zr  5,O   6)     31.0032         0.010000   
    620. D(Zr  2,O  11,Zr  0,Zr  5)    163.4524         0.010000   
    621. D(Zr  2,O  11,Zr  0,Zr  3)    101.3681         0.010000   
    622. D(C  36,O  12,Zr  0,Zr  5)     27.7604         0.010000   
    623. D(C  36,O  12,Zr  0,Zr  3)     92.1814         0.010000   
    624. D(C  37,O  13,Zr  0,Zr  5)    -15.7989         0.010000   
    625. D(C  37,O  13,Zr  0,Zr  3)     31.0236         0.010000   
    626. D(C  38,O  14,Zr  0,Zr  5)     65.7331         0.010000   
    627. D(C  38,O  14,Zr  0,Zr  3)     33.3266         0.010000   
    628. D(C  39,O  15,Zr  0,Zr  5)     62.3967         0.010000   
    629. D(C  39,O  15,Zr  0,Zr  3)    -22.8047         0.010000   
    630. D(H  65,O  16,Zr  1,Zr  2)    114.7246         0.010000   
    631. D(C  40,O  16,Zr  1,Zr  4)    -64.9461         0.010000   
    632. D(C  40,O  16,Zr  1,Zr  2)     19.7434         0.010000   
    633. D(H  65,O  17,Zr  1,Zr  2)    -82.5043         0.010000   
    634. D(C  41,O  17,Zr  1,Zr  4)    -57.8681         0.010000   
    635. D(C  41,O  17,Zr  1,Zr  2)    -25.4113         0.010000   
    636. D(C  42,O  18,Zr  1,Zr  4)     17.5207         0.010000   
    637. D(C  42,O  18,Zr  1,Zr  2)    -29.6320         0.010000   
    638. D(C  43,O  19,Zr  1,Zr  4)    -29.0807         0.010000   
    639. D(C  43,O  19,Zr  1,Zr  2)    -92.5085         0.010000   
    640. D(C  44,O  20,Zr  2,Zr  5)      0.8516         0.010000   
    641. D(C  44,O  20,Zr  2,Zr  1)    -60.7643         0.010000   
    642. D(C  38,O  21,Zr  2,Zr  5)    -38.0289         0.010000   
    643. D(C  38,O  21,Zr  2,Zr  1)      9.7824         0.010000   
    644. D(C  42,O  22,Zr  2,Zr  5)     20.1593         0.010000   
    645. D(C  42,O  22,Zr  2,Zr  1)    -28.4077         0.010000   
    646. D(C  45,O  23,Zr  2,Zr  5)    -75.1042         0.010000   
    647. D(C  45,O  23,Zr  2,Zr  1)      0.6105         0.010000   
    648. D(C  46,O  24,Zr  3,Zr  4)     76.1867         0.010000   
    649. D(C  46,O  24,Zr  3,Zr  0)     -1.5428         0.010000   
    650. D(H  65,O  24,Zr  3,Zr  0)   -123.8699         0.010000   
    651. D(C  37,O  25,Zr  3,Zr  4)    -18.1467         0.010000   
    652. D(C  37,O  25,Zr  3,Zr  0)     30.1709         0.010000   
    653. D(H  67,O  26,Zr  3,Zr  0)    151.2827         0.010000   
    654. D(C  41,O  26,Zr  3,Zr  4)     41.9782         0.010000   
    655. D(C  41,O  26,Zr  3,Zr  0)     -2.1176         0.010000   
    656. D(C  47,O  27,Zr  3,Zr  4)     -1.0145         0.010000   
    657. D(C  47,O  27,Zr  3,Zr  0)     62.0639         0.010000   
    658. D(C  47,O  28,Zr  4,Zr  3)     -1.0754         0.010000   
    659. D(C  47,O  28,Zr  4,Zr  1)     50.7297         0.010000   
    660. D(C  39,O  29,Zr  4,Zr  3)     38.1103         0.010000   
    661. D(C  39,O  29,Zr  4,Zr  1)    -47.1030         0.010000   
    662. D(C  43,O  30,Zr  4,Zr  3)    -98.6968         0.010000   
    663. D(C  43,O  30,Zr  4,Zr  1)    -34.7695         0.010000   
    664. D(C  45,O  31,Zr  4,Zr  3)    -26.0652         0.010000   
    665. D(C  45,O  31,Zr  4,Zr  1)    -74.7430         0.010000   
    666. D(C  46,O  32,Zr  5,Zr  0)     70.9794         0.010000   
    667. D(C  46,O  32,Zr  5,Zr  2)     18.2708         0.010000   
    668. D(C  36,O  33,Zr  5,Zr  2)     94.3097         0.010000   
    669. D(C  36,O  33,Zr  5,Zr  0)     32.2914         0.010000   
    670. D(C  40,O  34,Zr  5,Zr  0)     44.3862         0.010000   
    671. D(C  40,O  34,Zr  5,Zr  2)    -38.8220         0.010000   
    672. D(H  65,O  34,Zr  5,Zr  0)    -18.4306         0.010000   
    673. D(C  44,O  35,Zr  5,Zr  2)      1.0872         0.010000   
    674. D(C  44,O  35,Zr  5,Zr  0)    -51.6371         0.010000   
    675. D(H  58,C  36,O  12,Zr  0)    161.7418         0.046200   
    676. D(O  33,C  36,O  12,Zr  0)    -17.7157         0.046200   
    677. D(H  58,C  36,O  33,Zr  5)    154.6348         0.045941   
    678. D(O  12,C  36,O  33,Zr  5)    -25.9079         0.045941   
    679. D(H  51,C  37,O  25,Zr  3)    158.7393         0.045779   
    680. D(O  13,C  37,O  25,Zr  3)    -21.1657         0.045779   
    681. D(H  51,C  37,O  13,Zr  0)    156.4546         0.045761   
    682. D(O  25,C  37,O  13,Zr  0)    -23.6405         0.045761   
    683. D(H  50,C  38,O  21,Zr  2)    175.6825         0.047510   
    684. D(O  14,C  38,O  21,Zr  2)     -3.2176         0.047510   
    685. D(H  50,C  38,O  14,Zr  0)    165.0244         0.047684   
    686. D(O  21,C  38,O  14,Zr  0)    -16.0765         0.047684   
    687. D(H  54,C  39,O  29,Zr  4)   -179.0505         0.048302   
    688. D(O  15,C  39,O  29,Zr  4)      1.9363         0.048302   
    689. D(H  54,C  39,O  15,Zr  0)    168.8952         0.048418   
    690. D(O  29,C  39,O  15,Zr  0)    -12.0917         0.048418   
    691. D(H  56,C  40,O  34,Zr  5)    175.4012         0.058057   
    692. D(O  16,C  40,O  34,H  65)     78.6268         0.058057   
    693. D(O  16,C  40,O  34,Zr  5)     -6.4310         0.058057   
    694. D(H  56,C  40,O  16,Zr  1)   -162.6144         0.057970   
    695. D(O  34,C  40,O  16,H  65)    -90.4679         0.057970   
    696. D(O  34,C  40,O  16,Zr  1)     19.2185         0.057970   
    697. D(H  48,C  41,O  26,Zr  3)   -174.8999         0.070100   
    698. D(O  17,C  41,O  26,H  67)   -140.8630         0.070100   
    699. D(O  17,C  41,O  26,Zr  3)      4.6786         0.070100   
    700. D(H  48,C  41,O  17,Zr  1)   -173.7383         0.062096   
    701. D(O  26,C  41,O  17,H  65)     75.1651         0.062096   
    702. D(O  26,C  41,O  17,Zr  1)      6.6832         0.062096   
    703. D(H  49,C  42,O  22,Zr  2)   -160.2794         0.045938   
    704. D(O  18,C  42,O  22,Zr  2)     19.6595         0.045938   
    705. D(H  49,C  42,O  18,Zr  1)   -157.0973         0.045924   
    706. D(O  22,C  42,O  18,Zr  1)     22.9639         0.045924   
    707. D(H  52,C  43,O  30,Zr  4)   -152.0465         0.045727   
    708. D(O  19,C  43,O  30,Zr  4)     28.5653         0.045727   
    709. D(H  52,C  43,O  19,Zr  1)   -161.6269         0.046032   
    710. D(O  30,C  43,O  19,Zr  1)     17.7617         0.046032   
    711. D(H  59,C  44,O  35,Zr  5)    179.0464         0.047130   
    712. D(O  20,C  44,O  35,Zr  5)     -0.9621         0.047130   
    713. D(H  59,C  44,O  20,Zr  2)    179.5170         0.047216   
    714. D(O  35,C  44,O  20,Zr  2)     -0.4745         0.047216   
    715. D(H  55,C  45,O  31,Zr  4)   -163.4929         0.046992   
    716. D(O  23,C  45,O  31,Zr  4)     15.8609         0.046992   
    717. D(H  55,C  45,O  23,Zr  2)   -147.0218         0.046236   
    718. D(O  31,C  45,O  23,Zr  2)     33.6250         0.046236   
    719. D(H  57,C  46,O  32,Zr  5)    166.5266         0.056942   
    720. D(O  24,C  46,O  32,Zr  5)    -12.9014         0.056942   
    721. D(H  57,C  46,O  24,Zr  3)    146.6829         0.068287   
    722. D(O  32,C  46,O  24,H  65)     93.3557         0.068287   
    723. D(O  32,C  46,O  24,Zr  3)    -33.8900         0.068287   
    724. D(H  53,C  47,O  28,Zr  4)   -179.1635         0.047037   
    725. D(O  27,C  47,O  28,Zr  4)      0.8221         0.047037   
    726. D(H  53,C  47,O  27,Zr  3)   -179.2993         0.047119   
    727. D(O  28,C  47,O  27,Zr  3)      0.7150         0.047119   
    728. D(H  65,H  48,C  41,O  17)     97.3318         0.149997   
    729. D(H  62,H  48,C  41,O  26)    -59.0960         0.149997   
    730. D(H  62,H  48,C  41,O  17)    121.2601         0.149997   
    731. D(H  65,H  56,C  40,O  34)    102.8322         0.125444   
    732. D(H  65,H  56,C  40,O  16)    -75.5894         0.125444   
    733. D(H  64,H  57,C  46,O  32)   -139.4150         0.136353   
    734. D(H  64,H  57,C  46,O  24)     40.0978         0.136353   
    735. D(H  63,Al 61,Al 60,H  62)     92.1005         0.010000   
    736. D(H  62,Al 61,Al 60,H  65)     89.8112         0.010000   
    737. D(H  62,Al 61,Al 60,H  64)    178.0052         0.010000   
    738. D(Al 60,H  62,Al 61,H  64)      1.2781         0.010000   
    739. D(Al 60,H  62,Al 61,H  63)    -95.2980         0.010000   
    740. D(H  48,H  62,Al 60,Al 61)    132.1331         0.010000   
    741. D(Al 61,H  62,Al 60,H  64)     -1.2789         0.010000   
    742. D(Al 61,H  62,H  48,C  41)     70.1941         0.010000   
    743. D(Al 60,H  62,H  48,H  65)    -22.5991         0.010000   
    744. D(Al 60,H  62,H  48,C  41)    -49.2954         0.010000   
    745. D(Al 61,H  62,C  41,O  17)    140.8432         0.010000   
    746. D(Al 60,H  62,C  41,O  26)    -98.5931         0.010000   
    747. D(Al 61,H  62,Al 60,H  65)    -96.7553         0.010000   
    748. D(Al 60,H  62,C  41,O  17)     34.7753         0.010000   
    749. D(Al 61,H  62,O  26,Zr  3)     42.6079         0.010000   
    750. D(Al 60,H  62,O  26,C  41)     83.9421         0.010000   
    751. D(H  48,H  62,Al 61,Al 60)   -122.0171         0.010000   
    752. D(Al 60,H  62,O  26,Zr  3)    -60.2170         0.010000   
    753. D(H  57,H  64,Al 61,Al 60)    126.0977         0.010000   
    754. D(Al 60,H  64,Al 61,H  63)     96.9932         0.010000   
    755. D(H  57,H  64,Al 60,Al 61)   -130.4886         0.010000   
    756. D(Al 61,H  64,Al 60,H  65)     98.0022         0.010000   
    757. D(Al 61,H  64,Al 60,H  62)      1.2783         0.010000   
    758. D(Al 61,H  64,H  57,C  46)    -77.3075         0.010000   
    759. D(Al 60,H  64,H  57,C  46)     43.7556         0.010000   
    760. D(Al 61,H  64,C  46,O  24)    -29.6229         0.010000   
    761. D(Al 60,H  64,C  46,O  32)    -53.5422         0.010000   
    762. D(Al 60,H  64,C  46,O  24)     78.1763         0.010000   
    763. D(Al 60,H  64,Al 61,H  62)     -1.2785         0.010000   
    764. D(Al 61,H  64,O  24,Zr  3)    -27.8926         0.010000   
    765. D(Al 60,H  64,O  24,C  46)   -104.1782         0.010000   
    766. D(Al 60,H  64,O  24,Zr  3)     74.8021         0.010000   
    767. D(O  16,H  65,Al 60,Al 61)   -158.9210         0.011645   
    768. D(O  24,H  65,Al 60,H  62)     71.6930         0.011645   
    769. D(O  24,H  65,H  56,C  40)    -44.5970         0.010000   
    770. D(Al 60,H  65,H  56,C  40)   -176.9769         0.010000   
    771. D(O  24,H  65,H  48,C  41)     53.0056         0.010000   
    772. D(Al 60,H  65,H  48,H  62)     22.4731         0.010000   
    773. D(Al 60,H  65,H  48,C  41)    170.7201         0.010000   
    774. D(O  24,H  65,C  46,O  32)   -123.9785         0.010000   
    775. D(Al 60,H  65,C  46,O  32)    128.3156         0.010000   
    776. D(O  24,H  65,C  41,O  17)    116.5538         0.010000   
    777. D(Al 60,H  65,C  41,O  26)    103.2069         0.010000   
    778. D(Al 60,H  65,C  41,O  17)   -125.9293         0.010000   
    779. D(O  24,H  65,C  40,O  16)   -103.9220         0.010000   
    780. D(Al 60,H  65,C  40,O  34)   -113.1287         0.010000   
    781. D(Al 60,H  65,C  40,O  16)    118.9186         0.010000   
    782. D(O  24,H  65,O  34,Zr  5)    -21.3022         0.010000   
    783. D(Al 60,H  65,O  34,C  40)     86.8665         0.010000   
    784. D(Al 60,H  65,O  34,Zr  5)   -138.3774         0.010000   
    785. D(O  24,H  65,O  26,Zr  3)     24.7473         0.010000   
    786. D(Al 60,H  65,O  26,C  41)    -88.6670         0.010000   
    787. D(Al 60,H  65,C  46,O  24)   -107.7059         0.010000   
    788. D(Al 60,H  65,O  26,Zr  3)    132.7111         0.010000   
    789. D(O  16,H  65,O  24,Zr  3)     57.5085         0.010000   
    790. D(Al 60,H  65,O  24,C  46)     84.3768         0.010000   
    791. D(Al 60,H  65,O  24,Zr  3)   -130.8806         0.010000   
    792. D(O  24,H  65,O  17,Zr  1)     76.7235         0.010000   
    793. D(Al 60,H  65,O  17,C  41)     65.8824         0.010000   
    794. D(Al 60,H  65,O  17,Zr  1)   -153.3350         0.010000   
    795. D(O  24,H  65,Al 60,Al 61)     32.5092         0.011645   
    796. D(O  24,H  65,O  16,Zr  1)    -53.0205         0.010000   
    797. D(Al 60,H  65,O  16,C  40)    -85.8627         0.010000   
    798. D(Al 60,H  65,O  16,Zr  1)    137.6076         0.010000   
    799. D(O  24,H  67,O  26,Zr  3)    -43.7167         0.010000   
    800. D(Al 61,H  67,O  26,C  41)     13.7334         0.010000   
    801. D(Al 61,H  67,O  26,Zr  3)   -144.4977         0.010000   
    802. D(O  26,H  67,O  24,Zr  3)     44.2767         0.010000   
    803. D(Al 61,H  67,O  24,C  46)    -50.2555         0.010000   
    804. D(Al 61,H  67,O  24,Zr  3)    151.5897         0.010000   
    805. D(O  26,H  67,Al 61,Al 60)     35.8623         0.010000   
    806. D(O  24,H  67,Al 61,H  62)    -69.8698         0.010000   
    807. D(O  24,H  67,Al 61,Al 60)    -30.0950         0.010000   
    -----------------------------------------------------------------

Number of atoms                         .... 68
Number of degrees of freedom            .... 807


         *************************************************************
         *                GEOMETRY OPTIMIZATION CYCLE   1            *
         *************************************************************
---------------------------------
CARTESIAN COORDINATES (ANGSTROEM)
---------------------------------
  Zr    -0.382006    2.129127    1.474177
  Zr     0.308085   -2.215736   -1.413245
  Zr     1.836908   -1.175237    1.478012
  Zr    -1.883845    1.128786   -1.437968
  Zr     1.482927    0.932714   -1.809339
  Zr    -1.552529   -1.024319    1.849514
  O     -1.703992    0.753670    0.629711
  O      1.642403   -0.840092   -0.589395
  O      0.017973   -2.005713    0.714990
  O     -0.065078    1.930764   -0.653921
  O     -0.300370   -0.196648   -1.613634
  O      0.221384    0.110715    1.701887
  O     -1.859639    2.247900    2.803897
  O     -1.346208    3.698230    0.710745
  O      0.713352    1.913878    3.215876
  O      1.279259    3.154548    1.098143
  O     -1.314868   -3.287576   -1.006587
  O     -0.809911   -1.984856   -3.139670
  O      1.304742   -3.767469   -0.657956
  O      1.758105   -2.328098   -2.776621
  O      1.426184   -2.404966    2.962628
  O      2.206895    0.104152    3.054981
  O      2.833799   -2.746314    0.778428
  O      3.495836   -0.152939    0.826991
  O     -3.537493    0.096212   -0.836187
  O     -2.891412    2.684542   -0.713268
  O     -2.207663   -0.096590   -3.064592
  O     -1.454493    2.407632   -2.879748
  O      0.860124    2.286627   -3.109965
  O      2.314693    2.550737   -0.909031
  O      1.803131   -0.108406   -3.471529
  O      3.460070    0.439637   -1.449766
  O     -3.523590   -0.578693    1.415658
  O     -1.967776    0.025490    3.484045
  O     -2.329315   -2.707325    1.019099
  O     -0.889165   -2.316180    3.194676
  C     -2.236438    1.293273    3.602965
  C     -2.436113    3.674438   -0.000863
  C      1.713096    1.177660    3.590409
  C      2.147842    3.282978    0.146289
  C     -2.126784   -3.464591   -0.012404
  C     -1.726938   -1.183309   -3.583778
  C      2.389959   -3.736292    0.059707
  C      2.095177   -1.371483   -3.591624
  C      0.297168   -2.739971    3.508518
  C      4.029888    0.161025   -0.316589
  C     -4.083130   -0.255882    0.289927
  C     -0.317829    2.743534   -3.409578
  H     -2.154125   -1.461523   -4.541050
  H      2.996414   -4.643755    0.059655
  H      2.203826    1.500251    4.502642
  H     -3.034735    4.587365   -0.001479
  H      2.674656   -1.659506   -4.471404
  H     -0.356401    3.495874   -4.197133
  H      2.842044    4.111031    0.255173
  H      5.115963    0.206370   -0.323308
  H     -2.742291   -4.358317   -0.064162
  H     -5.169248   -0.294032    0.287342
  H     -2.833648    1.587641    4.468329
  H      0.350859   -3.460265    4.324511
  Al    -4.854588   -2.671031   -2.503104
  Al    -5.746782   -0.416378   -3.477354
  H     -4.760000   -1.710706   -3.872036
  H     -7.117091   -0.898801   -4.157641
  H     -5.812220   -1.359850   -2.094371
  H     -3.514766   -2.167898   -1.783016
  H     -5.997947   -3.706160   -2.944351
  H     -4.678736    0.706108   -3.061223

----------------------------
CARTESIAN COORDINATES (A.U.)
----------------------------
  NO LB      ZA    FRAG     MASS         X           Y           Z
   0 Zr   12.0000*   0    91.220   -0.721886    4.023467    2.785791
   1 Zr   12.0000*   0    91.220    0.582197   -4.187135   -2.670647
   2 Zr   12.0000*   0    91.220    3.471254   -2.220876    2.793038
   3 Zr   12.0000*   0    91.220   -3.559951    2.133096   -2.717366
   4 Zr   12.0000*   0    91.220    2.802326    1.762573   -3.419155
   5 Zr   12.0000*   0    91.220   -2.933854   -1.935682    3.495075
   6 O     8.0000    0    15.999   -3.220078    1.424230    1.189981
   7 O     8.0000    0    15.999    3.103692   -1.587544   -1.113795
   8 O     8.0000    0    15.999    0.033964   -3.790248    1.351135
   9 O     8.0000    0    15.999   -0.122980    3.648616   -1.235732
  10 O     8.0000    0    15.999   -0.567616   -0.371611   -3.049327
  11 O     8.0000    0    15.999    0.418355    0.209220    3.216099
  12 O     8.0000    0    15.999   -3.514209    4.247916    5.298597
  13 O     8.0000    0    15.999   -2.543965    6.988643    1.343113
  14 O     8.0000    0    15.999    1.348039    3.616705    6.077125
  15 O     8.0000    0    15.999    2.417448    5.961233    2.075189
  16 O     8.0000    0    15.999   -2.484740   -6.212618   -1.902173
  17 O     8.0000    0    15.999   -1.530510   -3.750835   -5.933116
  18 O     8.0000    0    15.999    2.465605   -7.119484   -1.243356
  19 O     8.0000    0    15.999    3.322337   -4.399468   -5.247053
  20 O     8.0000    0    15.999    2.695097   -4.544728    5.598555
  21 O     8.0000    0    15.999    4.170426    0.196819    5.773077
  22 O     8.0000    0    15.999    5.355104   -5.189781    1.471015
  23 O     8.0000    0    15.999    6.606173   -0.289012    1.562786
  24 O     8.0000    0    15.999   -6.684892    0.181815   -1.580164
  25 O     8.0000    0    15.999   -5.463976    5.073049   -1.347880
  26 O     8.0000    0    15.999   -4.171879   -0.182528   -5.791239
  27 O     8.0000    0    15.999   -2.748593    4.549765   -5.441935
  28 O     8.0000    0    15.999    1.625399    4.321099   -5.876981
  29 O     8.0000    0    15.999    4.374135    4.820194   -1.717820
  30 O     8.0000    0    15.999    3.407423   -0.204858   -6.560238
  31 O     8.0000    0    15.999    6.538585    0.830793   -2.739661
  32 O     8.0000    0    15.999   -6.658620   -1.093572    2.675206
  33 O     8.0000    0    15.999   -3.718558    0.048169    6.583891
  34 O     8.0000    0    15.999   -4.401767   -5.116103    1.925818
  35 O     8.0000    0    15.999   -1.680279   -4.376947    6.037062
  36 C     6.0000    0    12.011   -4.226255    2.443931    6.808617
  37 C     6.0000    0    12.011   -4.603586    6.943681   -0.001630
  38 C     6.0000    0    12.011    3.237282    2.225454    6.784891
  39 C     6.0000    0    12.011    4.058834    6.203929    0.276447
  40 C     6.0000    0    12.011   -4.019038   -6.547129   -0.023440
  41 C     6.0000    0    12.011   -3.263441   -2.236130   -6.772359
  42 C     6.0000    0    12.011    4.516368   -7.060569    0.112830
  43 C     6.0000    0    12.011    3.959311   -2.591728   -6.787187
  44 C     6.0000    0    12.011    0.561566   -5.177794    6.630138
  45 C     6.0000    0    12.011    7.615384    0.304293   -0.598266
  46 C     6.0000    0    12.011   -7.715998   -0.483546    0.547882
  47 C     6.0000    0    12.011   -0.600609    5.184527   -6.443168
  48 H     1.0000    0     1.008   -4.070707   -2.761879   -8.581341
  49 H     1.0000    0     1.008    5.662401   -8.775424    0.112733
  50 H     1.0000    0     1.008    4.164627    2.835064    8.508760
  51 H     1.0000    0     1.008   -5.734817    8.668863   -0.002794
  52 H     1.0000    0     1.008    5.054367   -3.136012   -8.449728
  53 H     1.0000    0     1.008   -0.673500    6.606244   -7.931433
  54 H     1.0000    0     1.008    5.370684    7.768722    0.482208
  55 H     1.0000    0     1.008    9.667769    0.389982   -0.610963
[...]
197:   2898.04   0.016495   83.36  0.001776  (-0.023306 -0.035031 -0.002416)
198:   2903.25   0.016845   85.13  0.001811  ( 0.022269 -0.036138  0.002969)
199:   2903.38   0.004093   20.68  0.000440  ( 0.012400 -0.016207 -0.004849)
200:   2904.26   0.020176  101.96  0.002168  ( 0.027061 -0.032869 -0.018847)
201:   2904.90   0.030840  155.85  0.003313  ( 0.024655 -0.050373  0.012955)
202:   2905.15   0.055910  282.55  0.006006  ( 0.020813  0.016070 -0.072900)
203:   2906.34   0.003046   15.40  0.000327  (-0.010334  0.003048  0.014527)

* The epsilon (eps) is given for a Dirac delta lineshape.
** The dipole moment derivative (T) already includes vibrational overlap.

The first frequency considered to be a vibration is 8
The total number of vibrations considered is 196


--------------------------
THERMOCHEMISTRY AT 298.15K
--------------------------

Temperature         ...   298.15 K
Pressure            ...     1.00 atm
Total Mass          ...  1243.53 AMU
Quasi RRHO          ...     True
Cut-Off Frequency   ...     1.00 cm^-1

Throughout the following assumptions are being made:
  (1) The electronic state is orbitally nondegenerate
  (2) There are no thermally accessible electronically excited states
  (3) Hindered rotations indicated by low frequency modes are not
      treated as such but are treated as vibrations and this may
      cause some error
  (4) All equations used are the standard statistical mechanics
      equations for an ideal gas
  (5) All vibrations are strictly harmonic

freq.       7.22  E(vib)   ...       0.58 
freq.      20.70  E(vib)   ...       0.56 
freq.      31.93  E(vib)   ...       0.55 
freq.      34.98  E(vib)   ...       0.54 
freq.      39.79  E(vib)   ...       0.54 
freq.      44.15  E(vib)   ...       0.53 
freq.      53.03  E(vib)   ...       0.52 
freq.      60.32  E(vib)   ...       0.51 
freq.      70.41  E(vib)   ...       0.50 
freq.      75.80  E(vib)   ...       0.49 
freq.      81.16  E(vib)   ...       0.48 
freq.      85.08  E(vib)   ...       0.48 
freq.      92.20  E(vib)   ...       0.47 
freq.      95.46  E(vib)   ...       0.47 
freq.     100.14  E(vib)   ...       0.46 
freq.     102.54  E(vib)   ...       0.46 
freq.     103.01  E(vib)   ...       0.46 
freq.     106.20  E(vib)   ...       0.45 
freq.     107.05  E(vib)   ...       0.45 
freq.     111.32  E(vib)   ...       0.45 
freq.     112.59  E(vib)   ...       0.45 
freq.     117.23  E(vib)   ...       0.44 
freq.     126.73  E(vib)   ...       0.43 
freq.     142.74  E(vib)   ...       0.41 
freq.     143.95  E(vib)   ...       0.41 
freq.     150.56  E(vib)   ...       0.40 
freq.     151.00  E(vib)   ...       0.40 
freq.     152.52  E(vib)   ...       0.40 
freq.     154.12  E(vib)   ...       0.40 
freq.     158.13  E(vib)   ...       0.39 
freq.     159.79  E(vib)   ...       0.39 
freq.     163.40  E(vib)   ...       0.39 
freq.     164.57  E(vib)   ...       0.39 
freq.     167.34  E(vib)   ...       0.39 
freq.     169.06  E(vib)   ...       0.38 
freq.     170.51  E(vib)   ...       0.38 
freq.     171.97  E(vib)   ...       0.38 
freq.     184.96  E(vib)   ...       0.37 
freq.     186.97  E(vib)   ...       0.36 
freq.     189.80  E(vib)   ...       0.36 
freq.     193.03  E(vib)   ...       0.36 
freq.     195.12  E(vib)   ...       0.36 
freq.     195.68  E(vib)   ...       0.36 
freq.     202.12  E(vib)   ...       0.35 
freq.     208.94  E(vib)   ...       0.34 
freq.     209.85  E(vib)   ...       0.34 
freq.     211.10  E(vib)   ...       0.34 
freq.     229.68  E(vib)   ...       0.32 
freq.     230.03  E(vib)   ...       0.32 
freq.     230.25  E(vib)   ...       0.32 
freq.     233.60  E(vib)   ...       0.32 
freq.     240.22  E(vib)   ...       0.31 
freq.     240.83  E(vib)   ...       0.31 
freq.     258.43  E(vib)   ...       0.30 
freq.     260.01  E(vib)   ...       0.30 
freq.     260.72  E(vib)   ...       0.30 
freq.     262.06  E(vib)   ...       0.29 
freq.     264.84  E(vib)   ...       0.29 
freq.     264.91  E(vib)   ...       0.29 
freq.     266.43  E(vib)   ...       0.29 
freq.     271.42  E(vib)   ...       0.29 
freq.     272.46  E(vib)   ...       0.29 
freq.     273.47  E(vib)   ...       0.29 
freq.     274.87  E(vib)   ...       0.28 
freq.     277.29  E(vib)   ...       0.28 
freq.     278.60  E(vib)   ...       0.28 
freq.     286.11  E(vib)   ...       0.27 
freq.     286.86  E(vib)   ...       0.27 
freq.     289.69  E(vib)   ...       0.27 
freq.     291.81  E(vib)   ...       0.27 
freq.     292.55  E(vib)   ...       0.27 
freq.     300.74  E(vib)   ...       0.26 
freq.     304.21  E(vib)   ...       0.26 
freq.     305.22  E(vib)   ...       0.26 
freq.     307.72  E(vib)   ...       0.26 
freq.     308.58  E(vib)   ...       0.26 
freq.     312.00  E(vib)   ...       0.25 
freq.     313.62  E(vib)   ...       0.25 
freq.     315.32  E(vib)   ...       0.25 
freq.     319.42  E(vib)   ...       0.25 
freq.     323.27  E(vib)   ...       0.25 
freq.     328.82  E(vib)   ...       0.24 
freq.     336.58  E(vib)   ...       0.24 
freq.     340.37  E(vib)   ...       0.23 
freq.     349.11  E(vib)   ...       0.23 
freq.     350.91  E(vib)   ...       0.23 
freq.     358.55  E(vib)   ...       0.22 
freq.     361.84  E(vib)   ...       0.22 
freq.     370.98  E(vib)   ...       0.21 
freq.     385.38  E(vib)   ...       0.20 
freq.     391.85  E(vib)   ...       0.20 
freq.     394.21  E(vib)   ...       0.20 
freq.     399.12  E(vib)   ...       0.19 
freq.     401.75  E(vib)   ...       0.19 
freq.     402.67  E(vib)   ...       0.19 
freq.     404.96  E(vib)   ...       0.19 
freq.     414.24  E(vib)   ...       0.19 
freq.     419.41  E(vib)   ...       0.18 
freq.     421.15  E(vib)   ...       0.18 
freq.     457.01  E(vib)   ...       0.16 
freq.     462.99  E(vib)   ...       0.16 
freq.     470.34  E(vib)   ...       0.15 
freq.     476.64  E(vib)   ...       0.15 
freq.     481.12  E(vib)   ...       0.15 
freq.     517.30  E(vib)   ...       0.13 
freq.     536.54  E(vib)   ...       0.12 
freq.     590.73  E(vib)   ...       0.10 
freq.     621.92  E(vib)   ...       0.09 
freq.     674.00  E(vib)   ...       0.08 
freq.     680.95  E(vib)   ...       0.08 
freq.     684.98  E(vib)   ...       0.07 
freq.     685.49  E(vib)   ...       0.07 
freq.     689.82  E(vib)   ...       0.07 
freq.     713.39  E(vib)   ...       0.07 
freq.     717.39  E(vib)   ...       0.07 
freq.     733.27  E(vib)   ...       0.06 
freq.     733.79  E(vib)   ...       0.06 
freq.     734.46  E(vib)   ...       0.06 
freq.     734.72  E(vib)   ...       0.06 
freq.     735.49  E(vib)   ...       0.06 
freq.     737.56  E(vib)   ...       0.06 
freq.     738.38  E(vib)   ...       0.06 
freq.     738.55  E(vib)   ...       0.06 
freq.     739.09  E(vib)   ...       0.06 
freq.     739.48  E(vib)   ...       0.06 
freq.     741.19  E(vib)   ...       0.06 
freq.     741.63  E(vib)   ...       0.06 
freq.     797.69  E(vib)   ...       0.05 
freq.     997.26  E(vib)   ...       0.02 
freq.     997.52  E(vib)   ...       0.02 
freq.     999.06  E(vib)   ...       0.02 
freq.     999.17  E(vib)   ...       0.02 
freq.     999.46  E(vib)   ...       0.02 
freq.    1001.27  E(vib)   ...       0.02 
freq.    1005.50  E(vib)   ...       0.02 
freq.    1005.61  E(vib)   ...       0.02 
freq.    1005.99  E(vib)   ...       0.02 
freq.    1006.25  E(vib)   ...       0.02 
freq.    1006.99  E(vib)   ...       0.02 
freq.    1007.12  E(vib)   ...       0.02 
freq.    1264.04  E(vib)   ...       0.01 
freq.    1339.62  E(vib)   ...       0.01 
freq.    1347.34  E(vib)   ...       0.01 
freq.    1350.01  E(vib)   ...       0.01 
freq.    1353.75  E(vib)   ...       0.01 
freq.    1354.32  E(vib)   ...       0.01 
freq.    1355.04  E(vib)   ...       0.01 
freq.    1355.27  E(vib)   ...       0.01 
freq.    1356.17  E(vib)   ...       0.01 
freq.    1356.54  E(vib)   ...       0.01 
freq.    1357.70  E(vib)   ...       0.01 
freq.    1357.99  E(vib)   ...       0.01 
freq.    1358.53  E(vib)   ...       0.01 
freq.    1358.86  E(vib)   ...       0.01 
freq.    1361.20  E(vib)   ...       0.01 
freq.    1361.34  E(vib)   ...       0.01 
freq.    1363.12  E(vib)   ...       0.01 
freq.    1363.69  E(vib)   ...       0.01 
freq.    1364.77  E(vib)   ...       0.01 
freq.    1365.83  E(vib)   ...       0.01 
freq.    1366.12  E(vib)   ...       0.01 
freq.    1367.51  E(vib)   ...       0.01 
freq.    1367.90  E(vib)   ...       0.01 
freq.    1371.78  E(vib)   ...       0.01 
freq.    1372.08  E(vib)   ...       0.01 
freq.    1380.43  E(vib)   ...       0.01 
freq.    1402.32  E(vib)   ...       0.00 
freq.    1476.67  E(vib)   ...       0.00 
freq.    1539.76  E(vib)   ...       0.00 
freq.    1548.37  E(vib)   ...       0.00 
freq.    1564.21  E(vib)   ...       0.00 
freq.    1566.36  E(vib)   ...       0.00 
freq.    1570.24  E(vib)   ...       0.00 
freq.    1577.22  E(vib)   ...       0.00 
freq.    1579.24  E(vib)   ...       0.00 
freq.    1632.46  E(vib)   ...       0.00 
freq.    1634.14  E(vib)   ...       0.00 
freq.    1638.11  E(vib)   ...       0.00 
freq.    1638.80  E(vib)   ...       0.00 
freq.    1640.30  E(vib)   ...       0.00 
freq.    1880.38  E(vib)   ...       0.00 
freq.    1890.71  E(vib)   ...       0.00 
freq.    1922.18  E(vib)   ...       0.00 
freq.    1942.86  E(vib)   ...       0.00 
freq.    2874.55  E(vib)   ...       0.00 
freq.    2883.80  E(vib)   ...       0.00 
freq.    2885.06  E(vib)   ...       0.00 
freq.    2890.00  E(vib)   ...       0.00 
freq.    2893.28  E(vib)   ...       0.00 
freq.    2898.04  E(vib)   ...       0.00 
freq.    2903.25  E(vib)   ...       0.00 
freq.    2903.38  E(vib)   ...       0.00 
freq.    2904.26  E(vib)   ...       0.00 
freq.    2904.90  E(vib)   ...       0.00 
freq.    2905.15  E(vib)   ...       0.00 
freq.    2906.34  E(vib)   ...       0.00 

------------
INNER ENERGY
------------

The inner energy is: U= E(el) + E(ZPE) + E(vib) + E(rot) + E(trans)
    E(el)   - is the total energy from the electronic structure calculation
              = E(kin-el) + E(nuc-el) + E(el-el) + E(nuc-nuc)
    E(ZPE)  - the the zero temperature vibrational energy from the frequency calculation
    E(vib)  - the the finite temperature correction to E(ZPE) due to population
              of excited vibrational states
    E(rot)  - is the rotational thermal energy
    E(trans)- is the translational thermal energy

Summary of contributions to the inner energy U:
Electronic energy                ...  -3488.52278607 Eh
Zero point energy                ...      0.34869584 Eh     218.81 kcal/mol
Thermal vibrational correction   ...      0.05841981 Eh      36.66 kcal/mol
Thermal rotational correction    ...      0.00141627 Eh       0.89 kcal/mol
Thermal translational correction ...      0.00141627 Eh       0.89 kcal/mol
-----------------------------------------------------------------------
Total thermal energy                  -3488.11283788 Eh


Summary of corrections to the electronic energy:
(perhaps to be used in another calculation)
Total thermal correction                  0.06125235 Eh      38.44 kcal/mol
Non-thermal (ZPE) correction              0.34869584 Eh     218.81 kcal/mol
-----------------------------------------------------------------------
Total correction                          0.40994818 Eh     257.25 kcal/mol


--------
ENTHALPY
--------

The enthalpy is H = U + kB*T
                kB is Boltzmann's constant
Total thermal energy              ...  -3488.11283788 Eh 
Thermal Enthalpy correction       ...      0.00094421 Eh       0.59 kcal/mol
-----------------------------------------------------------------------
Total Enthalpy                    ...  -3488.11189367 Eh


Note: Only C1 symmetry has been detected, increase convergence thresholds 
      if your molecule has a higher symmetry. Symmetry factor of 1.0 is   
      used for the rotational entropy correction. 
 

Note: Rotational entropy computed according to Herzberg 
Infrared and Raman Spectra, Chapter V,1, Van Nostrand Reinhold, 1945 
Point Group:  C1, Symmetry Number:   1  
Rotational constants in cm-1:     0.001775     0.001418     0.001407 

Vibrational entropy computed according to the QRRHO of S. Grimme
Chem.Eur.J. 2012 18 9955 using a reference frequency of 100.0 cm-1


-------
ENTROPY
-------

The entropy contributions are T*S = T*(S(el)+S(vib)+S(rot)+S(trans))
     S(el)   - electronic entropy
     S(vib)  - vibrational entropy
     S(rot)  - rotational entropy
     S(trans)- translational entropy
The entropies will be listed as multiplied by the temperature to get
units of energy

Electronic entropy                ...      0.00000000 Eh      0.00 kcal/mol
Vibrational entropy               ...      0.10553979 Eh     66.23 kcal/mol
Rotational entropy                ...      0.01869725 Eh     11.73 kcal/mol
Translational entropy             ...      0.02244101 Eh     14.08 kcal/mol
-----------------------------------------------------------------------
Final entropy term                ...      0.14667804 Eh     92.04 kcal/mol

In case the symmetry of your molecule has not been determined correctly
or in case you have a reason to use a different symmetry number we print 
out the resulting rotational entropy values for sn=1,12:

 non-linear molecules -----------------------------------
|  sn= 1 | S(rot)=       0.01869725 Eh     11.73 kcal/mol|
|  sn= 2 | S(rot)=       0.01804279 Eh     11.32 kcal/mol|
|  sn= 3 | S(rot)=       0.01765996 Eh     11.08 kcal/mol|
|  sn= 4 | S(rot)=       0.01738833 Eh     10.91 kcal/mol|
|  sn= 5 | S(rot)=       0.01717764 Eh     10.78 kcal/mol|
|  sn= 6 | S(rot)=       0.01700550 Eh     10.67 kcal/mol|
|  sn= 7 | S(rot)=       0.01685995 Eh     10.58 kcal/mol|
|  sn= 8 | S(rot)=       0.01673388 Eh     10.50 kcal/mol|
|  sn= 9 | S(rot)=       0.01662267 Eh     10.43 kcal/mol|
|  sn=10 | S(rot)=       0.01652319 Eh     10.37 kcal/mol|
|  sn=11 | S(rot)=       0.01643320 Eh     10.31 kcal/mol|
|  sn=12 | S(rot)=       0.01635104 Eh     10.26 kcal/mol|
 linear molecules ---------------------------------------
|  Dinfh | S(rot)=       0.01152570 Eh      7.23 kcal/mol|
|  Cinfv | S(rot)=       0.01218016 Eh      7.64 kcal/mol|
 --------------------------------------------------------


-------------------
GIBBS FREE ENERGY
-------------------

The Gibbs free energy is G = H - T*S

Total enthalpy                    ...  -3488.11189367 Eh 
Total entropy correction          ...     -0.14667804 Eh    -92.04 kcal/mol
-----------------------------------------------------------------------
Final Gibbs free energy         ...  -3488.25857171 Eh

For completeness - the Gibbs free energy minus the electronic energy
G-E(el)                           ...      0.26421435 Eh    165.80 kcal/mol


Maximum memory used throughout the entire PROP-calculation: 138.0 MB

--------------------------------
SUGGESTED CITATIONS FOR THIS RUN
--------------------------------

Below you find a list of papers that are relevant to this ORCA run
We neither can nor want to force you to cite these papers, but we appreciate if you do
You receive ORCA, which is the product of decades of hard work by many enthusiastic individuals, for free
The only thing we kindly ask in return is that you cite our papers,
We deeply appreciate it, if you show your appreciation for ORCA by not just citing the generic ORCA reference.

Please note that relegating all ORCA citations to the supporting information does *not* help us.
SI sections are not indexed - citations you put there will not count into any citation statistics
But we need these citations in order to attract the funding resources that allow us to do what we are doing

Therefore, if you are a happy ORCA user, please consider citing a few of the papers listed below in the main body of your paper

In addition to the list printed below, the program has created the file run.bibtex that contains the list in bibtex format
You can import this file easily into all common literature databanks and citation aid programs


List of essential papers. We consider these as the minimum necessary citations

  1. Neese, F.
     Software update: the ORCA program system, version 6.0
     WIRES Comput. Molec. Sci. 2025 15(1), e70019
     doi.org/10.1002/wcms.7019

List of papers to cite with high priority. The work reported in these papers was absolutely
necessary for this run to complete.
Our perspective: the developers of density functionals and basis sets usually get cited in chemistry papers
Good! But without the algorithms to do something with them, the functionals or basis sets would not do anything.
Hence, in our opinion, the algorithm design and method developments papers are equally worthy of getting cited

  1. Neese, F.
     An improvement of the resolution of the identity approximation for the formation of the Coulomb matrix
     J. Comp. Chem. 2003 24(14), 1740-1747
     doi.org/10.1002/jcc.10318
  2. Grimme, S.; Antony, J.; Ehrlich, S.; Krieg, H.
     A consistent and accurate ab initio parametrization of density functional dispersion correction (DFT-D) for the 94 elements H-Pu
     J. Chem. Phys. 2010 132 , 154104
     doi.org/10.1063/1.3382344
  3. Grimme, S.; Ehrlich, S.; Goerigk, L.
     Effect of the damping function in dispersion corrected density functional theory
     J. Comput. Chem. 2011 32(7), 1456-1465
     doi.org/10.1002/jcc.21759
  4. Bykov, D.; Petrenko, T.; Izsak, R.; Kossmann, S.; Becker, U.; Valeev, E.; Neese, F.
     Efficient implementation of the analytic second derivatives of Hartree-Fock and hybrid DFT energies: a detailed analysis of different approximations
     Molec. Phys. 2015 113 , 1961-1977
     doi.org/10.1080/00268976.2015.1025114
  5. Helmich-Paris, B.
     A trust-region augmented Hessian implementation for restricted and unrestricted Hartree–Fock and Kohn–Sham methods
     J. Chem. Phys. 2021 154 , 164104
     doi.org/10.1063/5.0040798
  6. Neese, F.
     The SHARK Integral Generation and Digestion System
     J. Comp. Chem. 2022 44(3), 381
     doi.org/10.1002/jcc.26942

List of suggested additional citations. These are papers that are important in the 'surrounding' of 
of this run, or papers that preceded the highly important papers. If you like your results we are grateful for a citation.

  1. Neese, F.
     The ORCA program system
     WIRES Comput. Molec. Sci. 2012 2(1), 73-78
     doi.org/10.1002/wcms.81
  2. Neese, F.
     Software update: the ORCA program system, version 4.0
     WIRES Comput. Molec. Sci. 2018 8(1), 1-6
     doi.org/10.1002/wcms.1327
  3. Neese, F.; Wennmohs, F.; Becker, U.; Riplinger, C.
     The ORCA quantum chemistry program package
     J. Chem. Phys. 2020 152(22), 224108
     doi.org/10.1063/5.0004608
  4. Neese, F.
     Software update: The ORCA program system—Version 5.0
     WIRES Comput. Molec. Sci. 2022 12(1), e1606
     doi.org/10.1002/wcms.1606

List of optional additional citations

  1. Neese, F.
     Approximate second-order SCF convergence for spin unrestricted wavefunctions
     Chem. Phys. Lett. 2000 325(1-3), 93-98
     doi.org/10.1016/s0009-2614(00)00662-x

Timings for individual modules:

Sum of individual times          ...     6613.728 sec (= 110.229 min)
Startup calculation              ...      251.340 sec (=   4.189 min)   3.8 %
SCF iterations                   ...     1936.224 sec (=  32.270 min)  29.3 %
Property integrals               ...     1358.143 sec (=  22.636 min)  20.5 %
SCF Response                     ...     1166.114 sec (=  19.435 min)  17.6 %
Property calculations            ...     1231.037 sec (=  20.517 min)  18.6 %
SCF Gradient evaluation          ...      648.333 sec (=  10.806 min)   9.8 %
Geometry relaxation              ...       22.537 sec (=   0.376 min)   0.3 %
                             ****ORCA TERMINATED NORMALLY****
TOTAL RUN TIME: 0 days 1 hours 50 minutes 31 seconds 954 msec
